# vtk DataFile Version 3.0
Malha poro-quimico-mec        
ASCII
DATASET UNSTRUCTURED_GRID
FIELD FieldData 4
TIME_S 1 1 double
        0.500000
TIME_H 1 1 double
        0.000139
TIME_D 1 1 double
        0.000006
CYCLE 1 1 int
       50
POINTS        101 double
    0.00000E+00    0.00000E+00    0.00000E+00
    0.10000E-01    0.00000E+00    0.00000E+00
    0.20000E-01    0.00000E+00    0.00000E+00
    0.30000E-01    0.00000E+00    0.00000E+00
    0.40000E-01    0.00000E+00    0.00000E+00
    0.50000E-01    0.00000E+00    0.00000E+00
    0.60000E-01    0.00000E+00    0.00000E+00
    0.70000E-01    0.00000E+00    0.00000E+00
    0.80000E-01    0.00000E+00    0.00000E+00
    0.90000E-01    0.00000E+00    0.00000E+00
    0.10000E+00    0.00000E+00    0.00000E+00
    0.11000E+00    0.00000E+00    0.00000E+00
    0.12000E+00    0.00000E+00    0.00000E+00
    0.13000E+00    0.00000E+00    0.00000E+00
    0.14000E+00    0.00000E+00    0.00000E+00
    0.15000E+00    0.00000E+00    0.00000E+00
    0.16000E+00    0.00000E+00    0.00000E+00
    0.17000E+00    0.00000E+00    0.00000E+00
    0.18000E+00    0.00000E+00    0.00000E+00
    0.19000E+00    0.00000E+00    0.00000E+00
    0.20000E+00    0.00000E+00    0.00000E+00
    0.21000E+00    0.00000E+00    0.00000E+00
    0.22000E+00    0.00000E+00    0.00000E+00
    0.23000E+00    0.00000E+00    0.00000E+00
    0.24000E+00    0.00000E+00    0.00000E+00
    0.25000E+00    0.00000E+00    0.00000E+00
    0.26000E+00    0.00000E+00    0.00000E+00
    0.27000E+00    0.00000E+00    0.00000E+00
    0.28000E+00    0.00000E+00    0.00000E+00
    0.29000E+00    0.00000E+00    0.00000E+00
    0.30000E+00    0.00000E+00    0.00000E+00
    0.31000E+00    0.00000E+00    0.00000E+00
    0.32000E+00    0.00000E+00    0.00000E+00
    0.33000E+00    0.00000E+00    0.00000E+00
    0.34000E+00    0.00000E+00    0.00000E+00
    0.35000E+00    0.00000E+00    0.00000E+00
    0.36000E+00    0.00000E+00    0.00000E+00
    0.37000E+00    0.00000E+00    0.00000E+00
    0.38000E+00    0.00000E+00    0.00000E+00
    0.39000E+00    0.00000E+00    0.00000E+00
    0.40000E+00    0.00000E+00    0.00000E+00
    0.41000E+00    0.00000E+00    0.00000E+00
    0.42000E+00    0.00000E+00    0.00000E+00
    0.43000E+00    0.00000E+00    0.00000E+00
    0.44000E+00    0.00000E+00    0.00000E+00
    0.45000E+00    0.00000E+00    0.00000E+00
    0.46000E+00    0.00000E+00    0.00000E+00
    0.47000E+00    0.00000E+00    0.00000E+00
    0.48000E+00    0.00000E+00    0.00000E+00
    0.49000E+00    0.00000E+00    0.00000E+00
    0.50000E+00    0.00000E+00    0.00000E+00
    0.51000E+00    0.00000E+00    0.00000E+00
    0.52000E+00    0.00000E+00    0.00000E+00
    0.53000E+00    0.00000E+00    0.00000E+00
    0.54000E+00    0.00000E+00    0.00000E+00
    0.55000E+00    0.00000E+00    0.00000E+00
    0.56000E+00    0.00000E+00    0.00000E+00
    0.57000E+00    0.00000E+00    0.00000E+00
    0.58000E+00    0.00000E+00    0.00000E+00
    0.59000E+00    0.00000E+00    0.00000E+00
    0.60000E+00    0.00000E+00    0.00000E+00
    0.61000E+00    0.00000E+00    0.00000E+00
    0.62000E+00    0.00000E+00    0.00000E+00
    0.63000E+00    0.00000E+00    0.00000E+00
    0.64000E+00    0.00000E+00    0.00000E+00
    0.65000E+00    0.00000E+00    0.00000E+00
    0.66000E+00    0.00000E+00    0.00000E+00
    0.67000E+00    0.00000E+00    0.00000E+00
    0.68000E+00    0.00000E+00    0.00000E+00
    0.69000E+00    0.00000E+00    0.00000E+00
    0.70000E+00    0.00000E+00    0.00000E+00
    0.71000E+00    0.00000E+00    0.00000E+00
    0.72000E+00    0.00000E+00    0.00000E+00
    0.73000E+00    0.00000E+00    0.00000E+00
    0.74000E+00    0.00000E+00    0.00000E+00
    0.75000E+00    0.00000E+00    0.00000E+00
    0.76000E+00    0.00000E+00    0.00000E+00
    0.77000E+00    0.00000E+00    0.00000E+00
    0.78000E+00    0.00000E+00    0.00000E+00
    0.79000E+00    0.00000E+00    0.00000E+00
    0.80000E+00    0.00000E+00    0.00000E+00
    0.81000E+00    0.00000E+00    0.00000E+00
    0.82000E+00    0.00000E+00    0.00000E+00
    0.83000E+00    0.00000E+00    0.00000E+00
    0.84000E+00    0.00000E+00    0.00000E+00
    0.85000E+00    0.00000E+00    0.00000E+00
    0.86000E+00    0.00000E+00    0.00000E+00
    0.87000E+00    0.00000E+00    0.00000E+00
    0.88000E+00    0.00000E+00    0.00000E+00
    0.89000E+00    0.00000E+00    0.00000E+00
    0.90000E+00    0.00000E+00    0.00000E+00
    0.91000E+00    0.00000E+00    0.00000E+00
    0.92000E+00    0.00000E+00    0.00000E+00
    0.93000E+00    0.00000E+00    0.00000E+00
    0.94000E+00    0.00000E+00    0.00000E+00
    0.95000E+00    0.00000E+00    0.00000E+00
    0.96000E+00    0.00000E+00    0.00000E+00
    0.97000E+00    0.00000E+00    0.00000E+00
    0.98000E+00    0.00000E+00    0.00000E+00
    0.99000E+00    0.00000E+00    0.00000E+00
    0.10000E+01    0.00000E+00    0.00000E+00
CELLS        100       300
         2         0         1
         2         1         2
         2         2         3
         2         3         4
         2         4         5
         2         5         6
         2         6         7
         2         7         8
         2         8         9
         2         9        10
         2        10        11
         2        11        12
         2        12        13
         2        13        14
         2        14        15
         2        15        16
         2        16        17
         2        17        18
         2        18        19
         2        19        20
         2        20        21
         2        21        22
         2        22        23
         2        23        24
         2        24        25
         2        25        26
         2        26        27
         2        27        28
         2        28        29
         2        29        30
         2        30        31
         2        31        32
         2        32        33
         2        33        34
         2        34        35
         2        35        36
         2        36        37
         2        37        38
         2        38        39
         2        39        40
         2        40        41
         2        41        42
         2        42        43
         2        43        44
         2        44        45
         2        45        46
         2        46        47
         2        47        48
         2        48        49
         2        49        50
         2        50        51
         2        51        52
         2        52        53
         2        53        54
         2        54        55
         2        55        56
         2        56        57
         2        57        58
         2        58        59
         2        59        60
         2        60        61
         2        61        62
         2        62        63
         2        63        64
         2        64        65
         2        65        66
         2        66        67
         2        67        68
         2        68        69
         2        69        70
         2        70        71
         2        71        72
         2        72        73
         2        73        74
         2        74        75
         2        75        76
         2        76        77
         2        77        78
         2        78        79
         2        79        80
         2        80        81
         2        81        82
         2        82        83
         2        83        84
         2        84        85
         2        85        86
         2        86        87
         2        87        88
         2        88        89
         2        89        90
         2        90        91
         2        91        92
         2        92        93
         2        93        94
         2        94        95
         2        95        96
         2        96        97
         2        97        98
         2        98        99
         2        99       100
CELL_TYPES        100
  3
  3
  3
  3
  3
  3
  3
  3
  3
  3
  3
  3
  3
  3
  3
  3
  3
  3
  3
  3
  3
  3
  3
  3
  3
  3
  3
  3
  3
  3
  3
  3
  3
  3
  3
  3
  3
  3
  3
  3
  3
  3
  3
  3
  3
  3
  3
  3
  3
  3
  3
  3
  3
  3
  3
  3
  3
  3
  3
  3
  3
  3
  3
  3
  3
  3
  3
  3
  3
  3
  3
  3
  3
  3
  3
  3
  3
  3
  3
  3
  3
  3
  3
  3
  3
  3
  3
  3
  3
  3
  3
  3
  3
  3
  3
  3
  3
  3
  3
  3
CELL_DATA       100
 SCALARS mat             int            1
LOOKUP_TABLE default
         1
         1
         1
         1
         1
         1
         1
         1
         1
         1
         1
         1
         1
         1
         1
         1
         1
         1
         1
         1
         1
         1
         1
         1
         1
         1
         1
         1
         1
         1
         1
         1
         1
         1
         1
         1
         1
         1
         1
         1
         1
         1
         1
         1
         1
         1
         1
         1
         1
         1
         1
         1
         1
         1
         1
         1
         1
         1
         1
         1
         1
         1
         1
         1
         1
         1
         1
         1
         1
         1
         1
         1
         1
         1
         1
         1
         1
         1
         1
         1
         1
         1
         1
         1
         1
         1
         1
         1
         1
         1
         1
         1
         1
         1
         1
         1
         1
         1
         1
         1
 SCALARS elIdG           int            1
LOOKUP_TABLE default
         1
         2
         3
         4
         5
         6
         7
         8
         9
        10
        11
        12
        13
        14
        15
        16
        17
        18
        19
        20
        21
        22
        23
        24
        25
        26
        27
        28
        29
        30
        31
        32
        33
        34
        35
        36
        37
        38
        39
        40
        41
        42
        43
        44
        45
        46
        47
        48
        49
        50
        51
        52
        53
        54
        55
        56
        57
        58
        59
        60
        61
        62
        63
        64
        65
        66
        67
        68
        69
        70
        71
        72
        73
        74
        75
        76
        77
        78
        79
        80
        81
        82
        83
        84
        85
        86
        87
        88
        89
        90
        91
        92
        93
        94
        95
        96
        97
        98
        99
       100
POINT_DATA       101
SCALARS noIdG            int       1
LOOKUP_TABLE default
         1
         2
         3
         4
         5
         6
         7
         8
         9
        10
        11
        12
        13
        14
        15
        16
        17
        18
        19
        20
        21
        22
        23
        24
        25
        26
        27
        28
        29
        30
        31
        32
        33
        34
        35
        36
        37
        38
        39
        40
        41
        42
        43
        44
        45
        46
        47
        48
        49
        50
        51
        52
        53
        54
        55
        56
        57
        58
        59
        60
        61
        62
        63
        64
        65
        66
        67
        68
        69
        70
        71
        72
        73
        74
        75
        76
        77
        78
        79
        80
        81
        82
        83
        84
        85
        86
        87
        88
        89
        90
        91
        92
        93
        94
        95
        96
        97
        98
        99
       100
       101
VECTORS darcyVel        double
   0.10000E+001   0.00000E+000   0.00000E+000
   0.10000E+001   0.00000E+000   0.00000E+000
   0.10000E+001   0.00000E+000   0.00000E+000
   0.10000E+001   0.00000E+000   0.00000E+000
   0.10000E+001   0.00000E+000   0.00000E+000
   0.10000E+001   0.00000E+000   0.00000E+000
   0.10000E+001   0.00000E+000   0.00000E+000
   0.10000E+001   0.00000E+000   0.00000E+000
   0.10000E+001   0.00000E+000   0.00000E+000
   0.10000E+001   0.00000E+000   0.00000E+000
   0.10000E+001   0.00000E+000   0.00000E+000
   0.10000E+001   0.00000E+000   0.00000E+000
   0.10000E+001   0.00000E+000   0.00000E+000
   0.10000E+001   0.00000E+000   0.00000E+000
   0.10000E+001   0.00000E+000   0.00000E+000
   0.10000E+001   0.00000E+000   0.00000E+000
   0.10000E+001   0.00000E+000   0.00000E+000
   0.10000E+001   0.00000E+000   0.00000E+000
   0.10000E+001   0.00000E+000   0.00000E+000
   0.10000E+001   0.00000E+000   0.00000E+000
   0.10000E+001   0.00000E+000   0.00000E+000
   0.10000E+001   0.00000E+000   0.00000E+000
   0.10000E+001   0.00000E+000   0.00000E+000
   0.10000E+001   0.00000E+000   0.00000E+000
   0.10000E+001   0.00000E+000   0.00000E+000
   0.10000E+001   0.00000E+000   0.00000E+000
   0.10000E+001   0.00000E+000   0.00000E+000
   0.10000E+001   0.00000E+000   0.00000E+000
   0.10000E+001   0.00000E+000   0.00000E+000
   0.10000E+001   0.00000E+000   0.00000E+000
   0.10000E+001   0.00000E+000   0.00000E+000
   0.10000E+001   0.00000E+000   0.00000E+000
   0.10000E+001   0.00000E+000   0.00000E+000
   0.10000E+001   0.00000E+000   0.00000E+000
   0.10000E+001   0.00000E+000   0.00000E+000
   0.10000E+001   0.00000E+000   0.00000E+000
   0.10000E+001   0.00000E+000   0.00000E+000
   0.10000E+001   0.00000E+000   0.00000E+000
   0.10000E+001   0.00000E+000   0.00000E+000
   0.10000E+001   0.00000E+000   0.00000E+000
   0.10000E+001   0.00000E+000   0.00000E+000
   0.10000E+001   0.00000E+000   0.00000E+000
   0.10000E+001   0.00000E+000   0.00000E+000
   0.10000E+001   0.00000E+000   0.00000E+000
   0.10000E+001   0.00000E+000   0.00000E+000
   0.10000E+001   0.00000E+000   0.00000E+000
   0.10000E+001   0.00000E+000   0.00000E+000
   0.10000E+001   0.00000E+000   0.00000E+000
   0.10000E+001   0.00000E+000   0.00000E+000
   0.10000E+001   0.00000E+000   0.00000E+000
   0.10000E+001   0.00000E+000   0.00000E+000
   0.10000E+001   0.00000E+000   0.00000E+000
   0.10000E+001   0.00000E+000   0.00000E+000
   0.10000E+001   0.00000E+000   0.00000E+000
   0.10000E+001   0.00000E+000   0.00000E+000
   0.10000E+001   0.00000E+000   0.00000E+000
   0.10000E+001   0.00000E+000   0.00000E+000
   0.10000E+001   0.00000E+000   0.00000E+000
   0.10000E+001   0.00000E+000   0.00000E+000
   0.10000E+001   0.00000E+000   0.00000E+000
   0.10000E+001   0.00000E+000   0.00000E+000
   0.10000E+001   0.00000E+000   0.00000E+000
   0.10000E+001   0.00000E+000   0.00000E+000
   0.10000E+001   0.00000E+000   0.00000E+000
   0.10000E+001   0.00000E+000   0.00000E+000
   0.10000E+001   0.00000E+000   0.00000E+000
   0.10000E+001   0.00000E+000   0.00000E+000
   0.10000E+001   0.00000E+000   0.00000E+000
   0.10000E+001   0.00000E+000   0.00000E+000
   0.10000E+001   0.00000E+000   0.00000E+000
   0.10000E+001   0.00000E+000   0.00000E+000
   0.10000E+001   0.00000E+000   0.00000E+000
   0.10000E+001   0.00000E+000   0.00000E+000
   0.10000E+001   0.00000E+000   0.00000E+000
   0.10000E+001   0.00000E+000   0.00000E+000
   0.10000E+001   0.00000E+000   0.00000E+000
   0.10000E+001   0.00000E+000   0.00000E+000
   0.10000E+001   0.00000E+000   0.00000E+000
   0.10000E+001   0.00000E+000   0.00000E+000
   0.10000E+001   0.00000E+000   0.00000E+000
   0.10000E+001   0.00000E+000   0.00000E+000
   0.10000E+001   0.00000E+000   0.00000E+000
   0.10000E+001   0.00000E+000   0.00000E+000
   0.10000E+001   0.00000E+000   0.00000E+000
   0.10000E+001   0.00000E+000   0.00000E+000
   0.10000E+001   0.00000E+000   0.00000E+000
   0.10000E+001   0.00000E+000   0.00000E+000
   0.10000E+001   0.00000E+000   0.00000E+000
   0.10000E+001   0.00000E+000   0.00000E+000
   0.10000E+001   0.00000E+000   0.00000E+000
   0.10000E+001   0.00000E+000   0.00000E+000
   0.10000E+001   0.00000E+000   0.00000E+000
   0.10000E+001   0.00000E+000   0.00000E+000
   0.10000E+001   0.00000E+000   0.00000E+000
   0.10000E+001   0.00000E+000   0.00000E+000
   0.10000E+001   0.00000E+000   0.00000E+000
   0.10000E+001   0.00000E+000   0.00000E+000
   0.10000E+001   0.00000E+000   0.00000E+000
   0.10000E+001   0.00000E+000   0.00000E+000
   0.10000E+001   0.00000E+000   0.00000E+000
   0.10000E+001   0.00000E+000   0.00000E+000
SCALARS cCO2             double    1
LOOKUP_TABLE default
   0.10000E+001
   0.10000E+001
   0.10000E+001
   0.10000E+001
   0.10000E+001
   0.10000E+001
   0.99999E+000
   0.99999E+000
   0.99998E+000
   0.99997E+000
   0.99995E+000
   0.99992E+000
   0.99987E+000
   0.99981E+000
   0.99971E+000
   0.99957E+000
   0.99938E+000
   0.99910E+000
   0.99873E+000
   0.99822E+000
   0.99754E+000
   0.99664E+000
   0.99547E+000
   0.99396E+000
   0.99203E+000
   0.98961E+000
   0.98659E+000
   0.98287E+000
   0.97835E+000
   0.97289E+000
   0.96639E+000
   0.95871E+000
   0.94973E+000
   0.93934E+000
   0.92742E+000
   0.91389E+000
   0.89866E+000
   0.88167E+000
   0.86290E+000
   0.84232E+000
   0.81997E+000
   0.79589E+000
   0.77015E+000
   0.74287E+000
   0.71419E+000
   0.68426E+000
   0.65326E+000
   0.62141E+000
   0.58891E+000
   0.55599E+000
   0.52289E+000
   0.48983E+000
   0.45703E+000
   0.42472E+000
   0.39309E+000
   0.36233E+000
   0.33261E+000
   0.30407E+000
   0.27683E+000
   0.25099E+000
   0.22662E+000
   0.20378E+000
   0.18248E+000
   0.16274E+000
   0.14454E+000
   0.12785E+000
   0.11263E+000
   0.98828E-001
   0.86368E-001
   0.75180E-001
   0.65184E-001
   0.56296E-001
   0.48432E-001
   0.41507E-001
   0.35437E-001
   0.30140E-001
   0.25540E-001
   0.21562E-001
   0.18137E-001
   0.15201E-001
   0.12695E-001
   0.10564E-001
   0.87608E-002
   0.72399E-002
   0.59626E-002
   0.48941E-002
   0.40036E-002
   0.32644E-002
   0.26530E-002
   0.21491E-002
   0.17354E-002
   0.13969E-002
   0.11210E-002
   0.89678E-003
   0.71525E-003
   0.56879E-003
   0.45112E-003
   0.35720E-003
   0.28364E-003
   0.23035E-003
   0.20672E-003
