# vtk DataFile Version 3.0
Malha poro-quimico-mec        
ASCII
DATASET UNSTRUCTURED_GRID
FIELD FieldData 4
TIME_S 1 1 double
        0.120000
TIME_H 1 1 double
        0.000033
TIME_D 1 1 double
        0.000001
CYCLE 1 1 int
       12
POINTS        101 double
    0.00000E+00    0.00000E+00    0.00000E+00
    0.10000E-01    0.00000E+00    0.00000E+00
    0.20000E-01    0.00000E+00    0.00000E+00
    0.30000E-01    0.00000E+00    0.00000E+00
    0.40000E-01    0.00000E+00    0.00000E+00
    0.50000E-01    0.00000E+00    0.00000E+00
    0.60000E-01    0.00000E+00    0.00000E+00
    0.70000E-01    0.00000E+00    0.00000E+00
    0.80000E-01    0.00000E+00    0.00000E+00
    0.90000E-01    0.00000E+00    0.00000E+00
    0.10000E+00    0.00000E+00    0.00000E+00
    0.11000E+00    0.00000E+00    0.00000E+00
    0.12000E+00    0.00000E+00    0.00000E+00
    0.13000E+00    0.00000E+00    0.00000E+00
    0.14000E+00    0.00000E+00    0.00000E+00
    0.15000E+00    0.00000E+00    0.00000E+00
    0.16000E+00    0.00000E+00    0.00000E+00
    0.17000E+00    0.00000E+00    0.00000E+00
    0.18000E+00    0.00000E+00    0.00000E+00
    0.19000E+00    0.00000E+00    0.00000E+00
    0.20000E+00    0.00000E+00    0.00000E+00
    0.21000E+00    0.00000E+00    0.00000E+00
    0.22000E+00    0.00000E+00    0.00000E+00
    0.23000E+00    0.00000E+00    0.00000E+00
    0.24000E+00    0.00000E+00    0.00000E+00
    0.25000E+00    0.00000E+00    0.00000E+00
    0.26000E+00    0.00000E+00    0.00000E+00
    0.27000E+00    0.00000E+00    0.00000E+00
    0.28000E+00    0.00000E+00    0.00000E+00
    0.29000E+00    0.00000E+00    0.00000E+00
    0.30000E+00    0.00000E+00    0.00000E+00
    0.31000E+00    0.00000E+00    0.00000E+00
    0.32000E+00    0.00000E+00    0.00000E+00
    0.33000E+00    0.00000E+00    0.00000E+00
    0.34000E+00    0.00000E+00    0.00000E+00
    0.35000E+00    0.00000E+00    0.00000E+00
    0.36000E+00    0.00000E+00    0.00000E+00
    0.37000E+00    0.00000E+00    0.00000E+00
    0.38000E+00    0.00000E+00    0.00000E+00
    0.39000E+00    0.00000E+00    0.00000E+00
    0.40000E+00    0.00000E+00    0.00000E+00
    0.41000E+00    0.00000E+00    0.00000E+00
    0.42000E+00    0.00000E+00    0.00000E+00
    0.43000E+00    0.00000E+00    0.00000E+00
    0.44000E+00    0.00000E+00    0.00000E+00
    0.45000E+00    0.00000E+00    0.00000E+00
    0.46000E+00    0.00000E+00    0.00000E+00
    0.47000E+00    0.00000E+00    0.00000E+00
    0.48000E+00    0.00000E+00    0.00000E+00
    0.49000E+00    0.00000E+00    0.00000E+00
    0.50000E+00    0.00000E+00    0.00000E+00
    0.51000E+00    0.00000E+00    0.00000E+00
    0.52000E+00    0.00000E+00    0.00000E+00
    0.53000E+00    0.00000E+00    0.00000E+00
    0.54000E+00    0.00000E+00    0.00000E+00
    0.55000E+00    0.00000E+00    0.00000E+00
    0.56000E+00    0.00000E+00    0.00000E+00
    0.57000E+00    0.00000E+00    0.00000E+00
    0.58000E+00    0.00000E+00    0.00000E+00
    0.59000E+00    0.00000E+00    0.00000E+00
    0.60000E+00    0.00000E+00    0.00000E+00
    0.61000E+00    0.00000E+00    0.00000E+00
    0.62000E+00    0.00000E+00    0.00000E+00
    0.63000E+00    0.00000E+00    0.00000E+00
    0.64000E+00    0.00000E+00    0.00000E+00
    0.65000E+00    0.00000E+00    0.00000E+00
    0.66000E+00    0.00000E+00    0.00000E+00
    0.67000E+00    0.00000E+00    0.00000E+00
    0.68000E+00    0.00000E+00    0.00000E+00
    0.69000E+00    0.00000E+00    0.00000E+00
    0.70000E+00    0.00000E+00    0.00000E+00
    0.71000E+00    0.00000E+00    0.00000E+00
    0.72000E+00    0.00000E+00    0.00000E+00
    0.73000E+00    0.00000E+00    0.00000E+00
    0.74000E+00    0.00000E+00    0.00000E+00
    0.75000E+00    0.00000E+00    0.00000E+00
    0.76000E+00    0.00000E+00    0.00000E+00
    0.77000E+00    0.00000E+00    0.00000E+00
    0.78000E+00    0.00000E+00    0.00000E+00
    0.79000E+00    0.00000E+00    0.00000E+00
    0.80000E+00    0.00000E+00    0.00000E+00
    0.81000E+00    0.00000E+00    0.00000E+00
    0.82000E+00    0.00000E+00    0.00000E+00
    0.83000E+00    0.00000E+00    0.00000E+00
    0.84000E+00    0.00000E+00    0.00000E+00
    0.85000E+00    0.00000E+00    0.00000E+00
    0.86000E+00    0.00000E+00    0.00000E+00
    0.87000E+00    0.00000E+00    0.00000E+00
    0.88000E+00    0.00000E+00    0.00000E+00
    0.89000E+00    0.00000E+00    0.00000E+00
    0.90000E+00    0.00000E+00    0.00000E+00
    0.91000E+00    0.00000E+00    0.00000E+00
    0.92000E+00    0.00000E+00    0.00000E+00
    0.93000E+00    0.00000E+00    0.00000E+00
    0.94000E+00    0.00000E+00    0.00000E+00
    0.95000E+00    0.00000E+00    0.00000E+00
    0.96000E+00    0.00000E+00    0.00000E+00
    0.97000E+00    0.00000E+00    0.00000E+00
    0.98000E+00    0.00000E+00    0.00000E+00
    0.99000E+00    0.00000E+00    0.00000E+00
    0.10000E+01    0.00000E+00    0.00000E+00
CELLS        100       300
         2         0         1
         2         1         2
         2         2         3
         2         3         4
         2         4         5
         2         5         6
         2         6         7
         2         7         8
         2         8         9
         2         9        10
         2        10        11
         2        11        12
         2        12        13
         2        13        14
         2        14        15
         2        15        16
         2        16        17
         2        17        18
         2        18        19
         2        19        20
         2        20        21
         2        21        22
         2        22        23
         2        23        24
         2        24        25
         2        25        26
         2        26        27
         2        27        28
         2        28        29
         2        29        30
         2        30        31
         2        31        32
         2        32        33
         2        33        34
         2        34        35
         2        35        36
         2        36        37
         2        37        38
         2        38        39
         2        39        40
         2        40        41
         2        41        42
         2        42        43
         2        43        44
         2        44        45
         2        45        46
         2        46        47
         2        47        48
         2        48        49
         2        49        50
         2        50        51
         2        51        52
         2        52        53
         2        53        54
         2        54        55
         2        55        56
         2        56        57
         2        57        58
         2        58        59
         2        59        60
         2        60        61
         2        61        62
         2        62        63
         2        63        64
         2        64        65
         2        65        66
         2        66        67
         2        67        68
         2        68        69
         2        69        70
         2        70        71
         2        71        72
         2        72        73
         2        73        74
         2        74        75
         2        75        76
         2        76        77
         2        77        78
         2        78        79
         2        79        80
         2        80        81
         2        81        82
         2        82        83
         2        83        84
         2        84        85
         2        85        86
         2        86        87
         2        87        88
         2        88        89
         2        89        90
         2        90        91
         2        91        92
         2        92        93
         2        93        94
         2        94        95
         2        95        96
         2        96        97
         2        97        98
         2        98        99
         2        99       100
CELL_TYPES        100
  3
  3
  3
  3
  3
  3
  3
  3
  3
  3
  3
  3
  3
  3
  3
  3
  3
  3
  3
  3
  3
  3
  3
  3
  3
  3
  3
  3
  3
  3
  3
  3
  3
  3
  3
  3
  3
  3
  3
  3
  3
  3
  3
  3
  3
  3
  3
  3
  3
  3
  3
  3
  3
  3
  3
  3
  3
  3
  3
  3
  3
  3
  3
  3
  3
  3
  3
  3
  3
  3
  3
  3
  3
  3
  3
  3
  3
  3
  3
  3
  3
  3
  3
  3
  3
  3
  3
  3
  3
  3
  3
  3
  3
  3
  3
  3
  3
  3
  3
  3
CELL_DATA       100
 SCALARS mat             int            1
LOOKUP_TABLE default
         1
         1
         1
         1
         1
         1
         1
         1
         1
         1
         1
         1
         1
         1
         1
         1
         1
         1
         1
         1
         1
         1
         1
         1
         1
         1
         1
         1
         1
         1
         1
         1
         1
         1
         1
         1
         1
         1
         1
         1
         1
         1
         1
         1
         1
         1
         1
         1
         1
         1
         1
         1
         1
         1
         1
         1
         1
         1
         1
         1
         1
         1
         1
         1
         1
         1
         1
         1
         1
         1
         1
         1
         1
         1
         1
         1
         1
         1
         1
         1
         1
         1
         1
         1
         1
         1
         1
         1
         1
         1
         1
         1
         1
         1
         1
         1
         1
         1
         1
         1
 SCALARS elIdG           int            1
LOOKUP_TABLE default
         1
         2
         3
         4
         5
         6
         7
         8
         9
        10
        11
        12
        13
        14
        15
        16
        17
        18
        19
        20
        21
        22
        23
        24
        25
        26
        27
        28
        29
        30
        31
        32
        33
        34
        35
        36
        37
        38
        39
        40
        41
        42
        43
        44
        45
        46
        47
        48
        49
        50
        51
        52
        53
        54
        55
        56
        57
        58
        59
        60
        61
        62
        63
        64
        65
        66
        67
        68
        69
        70
        71
        72
        73
        74
        75
        76
        77
        78
        79
        80
        81
        82
        83
        84
        85
        86
        87
        88
        89
        90
        91
        92
        93
        94
        95
        96
        97
        98
        99
       100
POINT_DATA       101
SCALARS noIdG            int       1
LOOKUP_TABLE default
         1
         2
         3
         4
         5
         6
         7
         8
         9
        10
        11
        12
        13
        14
        15
        16
        17
        18
        19
        20
        21
        22
        23
        24
        25
        26
        27
        28
        29
        30
        31
        32
        33
        34
        35
        36
        37
        38
        39
        40
        41
        42
        43
        44
        45
        46
        47
        48
        49
        50
        51
        52
        53
        54
        55
        56
        57
        58
        59
        60
        61
        62
        63
        64
        65
        66
        67
        68
        69
        70
        71
        72
        73
        74
        75
        76
        77
        78
        79
        80
        81
        82
        83
        84
        85
        86
        87
        88
        89
        90
        91
        92
        93
        94
        95
        96
        97
        98
        99
       100
       101
VECTORS darcyVel        double
   0.10000E+001   0.00000E+000   0.00000E+000
   0.10000E+001   0.00000E+000   0.00000E+000
   0.10000E+001   0.00000E+000   0.00000E+000
   0.10000E+001   0.00000E+000   0.00000E+000
   0.10000E+001   0.00000E+000   0.00000E+000
   0.10000E+001   0.00000E+000   0.00000E+000
   0.10000E+001   0.00000E+000   0.00000E+000
   0.10000E+001   0.00000E+000   0.00000E+000
   0.10000E+001   0.00000E+000   0.00000E+000
   0.10000E+001   0.00000E+000   0.00000E+000
   0.10000E+001   0.00000E+000   0.00000E+000
   0.10000E+001   0.00000E+000   0.00000E+000
   0.10000E+001   0.00000E+000   0.00000E+000
   0.10000E+001   0.00000E+000   0.00000E+000
   0.10000E+001   0.00000E+000   0.00000E+000
   0.10000E+001   0.00000E+000   0.00000E+000
   0.10000E+001   0.00000E+000   0.00000E+000
   0.10000E+001   0.00000E+000   0.00000E+000
   0.10000E+001   0.00000E+000   0.00000E+000
   0.10000E+001   0.00000E+000   0.00000E+000
   0.10000E+001   0.00000E+000   0.00000E+000
   0.10000E+001   0.00000E+000   0.00000E+000
   0.10000E+001   0.00000E+000   0.00000E+000
   0.10000E+001   0.00000E+000   0.00000E+000
   0.10000E+001   0.00000E+000   0.00000E+000
   0.10000E+001   0.00000E+000   0.00000E+000
   0.10000E+001   0.00000E+000   0.00000E+000
   0.10000E+001   0.00000E+000   0.00000E+000
   0.10000E+001   0.00000E+000   0.00000E+000
   0.10000E+001   0.00000E+000   0.00000E+000
   0.10000E+001   0.00000E+000   0.00000E+000
   0.10000E+001   0.00000E+000   0.00000E+000
   0.10000E+001   0.00000E+000   0.00000E+000
   0.10000E+001   0.00000E+000   0.00000E+000
   0.10000E+001   0.00000E+000   0.00000E+000
   0.10000E+001   0.00000E+000   0.00000E+000
   0.10000E+001   0.00000E+000   0.00000E+000
   0.10000E+001   0.00000E+000   0.00000E+000
   0.10000E+001   0.00000E+000   0.00000E+000
   0.10000E+001   0.00000E+000   0.00000E+000
   0.10000E+001   0.00000E+000   0.00000E+000
   0.10000E+001   0.00000E+000   0.00000E+000
   0.10000E+001   0.00000E+000   0.00000E+000
   0.10000E+001   0.00000E+000   0.00000E+000
   0.10000E+001   0.00000E+000   0.00000E+000
   0.10000E+001   0.00000E+000   0.00000E+000
   0.10000E+001   0.00000E+000   0.00000E+000
   0.10000E+001   0.00000E+000   0.00000E+000
   0.10000E+001   0.00000E+000   0.00000E+000
   0.10000E+001   0.00000E+000   0.00000E+000
   0.10000E+001   0.00000E+000   0.00000E+000
   0.10000E+001   0.00000E+000   0.00000E+000
   0.10000E+001   0.00000E+000   0.00000E+000
   0.10000E+001   0.00000E+000   0.00000E+000
   0.10000E+001   0.00000E+000   0.00000E+000
   0.10000E+001   0.00000E+000   0.00000E+000
   0.10000E+001   0.00000E+000   0.00000E+000
   0.10000E+001   0.00000E+000   0.00000E+000
   0.10000E+001   0.00000E+000   0.00000E+000
   0.10000E+001   0.00000E+000   0.00000E+000
   0.10000E+001   0.00000E+000   0.00000E+000
   0.10000E+001   0.00000E+000   0.00000E+000
   0.10000E+001   0.00000E+000   0.00000E+000
   0.10000E+001   0.00000E+000   0.00000E+000
   0.10000E+001   0.00000E+000   0.00000E+000
   0.10000E+001   0.00000E+000   0.00000E+000
   0.10000E+001   0.00000E+000   0.00000E+000
   0.10000E+001   0.00000E+000   0.00000E+000
   0.10000E+001   0.00000E+000   0.00000E+000
   0.10000E+001   0.00000E+000   0.00000E+000
   0.10000E+001   0.00000E+000   0.00000E+000
   0.10000E+001   0.00000E+000   0.00000E+000
   0.10000E+001   0.00000E+000   0.00000E+000
   0.10000E+001   0.00000E+000   0.00000E+000
   0.10000E+001   0.00000E+000   0.00000E+000
   0.10000E+001   0.00000E+000   0.00000E+000
   0.10000E+001   0.00000E+000   0.00000E+000
   0.10000E+001   0.00000E+000   0.00000E+000
   0.10000E+001   0.00000E+000   0.00000E+000
   0.10000E+001   0.00000E+000   0.00000E+000
   0.10000E+001   0.00000E+000   0.00000E+000
   0.10000E+001   0.00000E+000   0.00000E+000
   0.10000E+001   0.00000E+000   0.00000E+000
   0.10000E+001   0.00000E+000   0.00000E+000
   0.10000E+001   0.00000E+000   0.00000E+000
   0.10000E+001   0.00000E+000   0.00000E+000
   0.10000E+001   0.00000E+000   0.00000E+000
   0.10000E+001   0.00000E+000   0.00000E+000
   0.10000E+001   0.00000E+000   0.00000E+000
   0.10000E+001   0.00000E+000   0.00000E+000
   0.10000E+001   0.00000E+000   0.00000E+000
   0.10000E+001   0.00000E+000   0.00000E+000
   0.10000E+001   0.00000E+000   0.00000E+000
   0.10000E+001   0.00000E+000   0.00000E+000
   0.10000E+001   0.00000E+000   0.00000E+000
   0.10000E+001   0.00000E+000   0.00000E+000
   0.10000E+001   0.00000E+000   0.00000E+000
   0.10000E+001   0.00000E+000   0.00000E+000
   0.10000E+001   0.00000E+000   0.00000E+000
   0.10000E+001   0.00000E+000   0.00000E+000
   0.10000E+001   0.00000E+000   0.00000E+000
SCALARS cCO2             double    1
LOOKUP_TABLE default
   0.10000E+001
   0.99694E+000
   0.99072E+000
   0.97984E+000
   0.96269E+000
   0.93781E+000
   0.90416E+000
   0.86131E+000
   0.80962E+000
   0.75017E+000
   0.68469E+000
   0.61533E+000
   0.54443E+000
   0.47426E+000
   0.40685E+000
   0.34384E+000
   0.28639E+000
   0.23521E+000
   0.19059E+000
   0.15244E+000
   0.12042E+000
   0.94009E-001
   0.72561E-001
   0.55404E-001
   0.41869E-001
   0.31331E-001
   0.23227E-001
   0.17065E-001
   0.12431E-001
   0.89824E-002
   0.64400E-002
   0.45829E-002
   0.32383E-002
   0.22727E-002
   0.15846E-002
   0.10980E-002
   0.75632E-003
   0.51797E-003
   0.35279E-003
   0.23903E-003
   0.16113E-003
   0.10809E-003
   0.72168E-004
   0.47969E-004
   0.31745E-004
   0.20921E-004
   0.13732E-004
   0.89784E-005
   0.58483E-005
   0.37956E-005
   0.24548E-005
   0.15822E-005
   0.10165E-005
   0.65096E-006
   0.41560E-006
   0.26455E-006
   0.16791E-006
   0.10628E-006
   0.67085E-007
   0.42235E-007
   0.26522E-007
   0.16613E-007
   0.10382E-007
   0.64723E-008
   0.40259E-008
   0.24987E-008
   0.15474E-008
   0.95633E-009
   0.58982E-009
   0.36305E-009
   0.22304E-009
   0.13676E-009
   0.83704E-010
   0.51139E-010
   0.31189E-010
   0.18989E-010
   0.11542E-010
   0.70044E-011
   0.42438E-011
   0.25673E-011
   0.15507E-011
   0.93525E-012
   0.56326E-012
   0.33874E-012
   0.20344E-012
   0.12201E-012
   0.73080E-013
   0.43714E-013
   0.26115E-013
   0.15582E-013
   0.92861E-014
   0.55273E-014
   0.32861E-014
   0.19514E-014
   0.11575E-014
   0.68584E-015
   0.40595E-015
   0.24012E-015
   0.14240E-015
   0.86919E-016
   0.65641E-016
