# vtk DataFile Version 3.0
Malha poro-quimico-mec        
ASCII
DATASET UNSTRUCTURED_GRID
FIELD FieldData 4
TIME_S 1 1 double
        0.360000
TIME_H 1 1 double
        0.000100
TIME_D 1 1 double
        0.000004
CYCLE 1 1 int
       36
POINTS        101 double
    0.00000E+00    0.00000E+00    0.00000E+00
    0.10000E-01    0.00000E+00    0.00000E+00
    0.20000E-01    0.00000E+00    0.00000E+00
    0.30000E-01    0.00000E+00    0.00000E+00
    0.40000E-01    0.00000E+00    0.00000E+00
    0.50000E-01    0.00000E+00    0.00000E+00
    0.60000E-01    0.00000E+00    0.00000E+00
    0.70000E-01    0.00000E+00    0.00000E+00
    0.80000E-01    0.00000E+00    0.00000E+00
    0.90000E-01    0.00000E+00    0.00000E+00
    0.10000E+00    0.00000E+00    0.00000E+00
    0.11000E+00    0.00000E+00    0.00000E+00
    0.12000E+00    0.00000E+00    0.00000E+00
    0.13000E+00    0.00000E+00    0.00000E+00
    0.14000E+00    0.00000E+00    0.00000E+00
    0.15000E+00    0.00000E+00    0.00000E+00
    0.16000E+00    0.00000E+00    0.00000E+00
    0.17000E+00    0.00000E+00    0.00000E+00
    0.18000E+00    0.00000E+00    0.00000E+00
    0.19000E+00    0.00000E+00    0.00000E+00
    0.20000E+00    0.00000E+00    0.00000E+00
    0.21000E+00    0.00000E+00    0.00000E+00
    0.22000E+00    0.00000E+00    0.00000E+00
    0.23000E+00    0.00000E+00    0.00000E+00
    0.24000E+00    0.00000E+00    0.00000E+00
    0.25000E+00    0.00000E+00    0.00000E+00
    0.26000E+00    0.00000E+00    0.00000E+00
    0.27000E+00    0.00000E+00    0.00000E+00
    0.28000E+00    0.00000E+00    0.00000E+00
    0.29000E+00    0.00000E+00    0.00000E+00
    0.30000E+00    0.00000E+00    0.00000E+00
    0.31000E+00    0.00000E+00    0.00000E+00
    0.32000E+00    0.00000E+00    0.00000E+00
    0.33000E+00    0.00000E+00    0.00000E+00
    0.34000E+00    0.00000E+00    0.00000E+00
    0.35000E+00    0.00000E+00    0.00000E+00
    0.36000E+00    0.00000E+00    0.00000E+00
    0.37000E+00    0.00000E+00    0.00000E+00
    0.38000E+00    0.00000E+00    0.00000E+00
    0.39000E+00    0.00000E+00    0.00000E+00
    0.40000E+00    0.00000E+00    0.00000E+00
    0.41000E+00    0.00000E+00    0.00000E+00
    0.42000E+00    0.00000E+00    0.00000E+00
    0.43000E+00    0.00000E+00    0.00000E+00
    0.44000E+00    0.00000E+00    0.00000E+00
    0.45000E+00    0.00000E+00    0.00000E+00
    0.46000E+00    0.00000E+00    0.00000E+00
    0.47000E+00    0.00000E+00    0.00000E+00
    0.48000E+00    0.00000E+00    0.00000E+00
    0.49000E+00    0.00000E+00    0.00000E+00
    0.50000E+00    0.00000E+00    0.00000E+00
    0.51000E+00    0.00000E+00    0.00000E+00
    0.52000E+00    0.00000E+00    0.00000E+00
    0.53000E+00    0.00000E+00    0.00000E+00
    0.54000E+00    0.00000E+00    0.00000E+00
    0.55000E+00    0.00000E+00    0.00000E+00
    0.56000E+00    0.00000E+00    0.00000E+00
    0.57000E+00    0.00000E+00    0.00000E+00
    0.58000E+00    0.00000E+00    0.00000E+00
    0.59000E+00    0.00000E+00    0.00000E+00
    0.60000E+00    0.00000E+00    0.00000E+00
    0.61000E+00    0.00000E+00    0.00000E+00
    0.62000E+00    0.00000E+00    0.00000E+00
    0.63000E+00    0.00000E+00    0.00000E+00
    0.64000E+00    0.00000E+00    0.00000E+00
    0.65000E+00    0.00000E+00    0.00000E+00
    0.66000E+00    0.00000E+00    0.00000E+00
    0.67000E+00    0.00000E+00    0.00000E+00
    0.68000E+00    0.00000E+00    0.00000E+00
    0.69000E+00    0.00000E+00    0.00000E+00
    0.70000E+00    0.00000E+00    0.00000E+00
    0.71000E+00    0.00000E+00    0.00000E+00
    0.72000E+00    0.00000E+00    0.00000E+00
    0.73000E+00    0.00000E+00    0.00000E+00
    0.74000E+00    0.00000E+00    0.00000E+00
    0.75000E+00    0.00000E+00    0.00000E+00
    0.76000E+00    0.00000E+00    0.00000E+00
    0.77000E+00    0.00000E+00    0.00000E+00
    0.78000E+00    0.00000E+00    0.00000E+00
    0.79000E+00    0.00000E+00    0.00000E+00
    0.80000E+00    0.00000E+00    0.00000E+00
    0.81000E+00    0.00000E+00    0.00000E+00
    0.82000E+00    0.00000E+00    0.00000E+00
    0.83000E+00    0.00000E+00    0.00000E+00
    0.84000E+00    0.00000E+00    0.00000E+00
    0.85000E+00    0.00000E+00    0.00000E+00
    0.86000E+00    0.00000E+00    0.00000E+00
    0.87000E+00    0.00000E+00    0.00000E+00
    0.88000E+00    0.00000E+00    0.00000E+00
    0.89000E+00    0.00000E+00    0.00000E+00
    0.90000E+00    0.00000E+00    0.00000E+00
    0.91000E+00    0.00000E+00    0.00000E+00
    0.92000E+00    0.00000E+00    0.00000E+00
    0.93000E+00    0.00000E+00    0.00000E+00
    0.94000E+00    0.00000E+00    0.00000E+00
    0.95000E+00    0.00000E+00    0.00000E+00
    0.96000E+00    0.00000E+00    0.00000E+00
    0.97000E+00    0.00000E+00    0.00000E+00
    0.98000E+00    0.00000E+00    0.00000E+00
    0.99000E+00    0.00000E+00    0.00000E+00
    0.10000E+01    0.00000E+00    0.00000E+00
CELLS        100       300
         2         0         1
         2         1         2
         2         2         3
         2         3         4
         2         4         5
         2         5         6
         2         6         7
         2         7         8
         2         8         9
         2         9        10
         2        10        11
         2        11        12
         2        12        13
         2        13        14
         2        14        15
         2        15        16
         2        16        17
         2        17        18
         2        18        19
         2        19        20
         2        20        21
         2        21        22
         2        22        23
         2        23        24
         2        24        25
         2        25        26
         2        26        27
         2        27        28
         2        28        29
         2        29        30
         2        30        31
         2        31        32
         2        32        33
         2        33        34
         2        34        35
         2        35        36
         2        36        37
         2        37        38
         2        38        39
         2        39        40
         2        40        41
         2        41        42
         2        42        43
         2        43        44
         2        44        45
         2        45        46
         2        46        47
         2        47        48
         2        48        49
         2        49        50
         2        50        51
         2        51        52
         2        52        53
         2        53        54
         2        54        55
         2        55        56
         2        56        57
         2        57        58
         2        58        59
         2        59        60
         2        60        61
         2        61        62
         2        62        63
         2        63        64
         2        64        65
         2        65        66
         2        66        67
         2        67        68
         2        68        69
         2        69        70
         2        70        71
         2        71        72
         2        72        73
         2        73        74
         2        74        75
         2        75        76
         2        76        77
         2        77        78
         2        78        79
         2        79        80
         2        80        81
         2        81        82
         2        82        83
         2        83        84
         2        84        85
         2        85        86
         2        86        87
         2        87        88
         2        88        89
         2        89        90
         2        90        91
         2        91        92
         2        92        93
         2        93        94
         2        94        95
         2        95        96
         2        96        97
         2        97        98
         2        98        99
         2        99       100
CELL_TYPES        100
  3
  3
  3
  3
  3
  3
  3
  3
  3
  3
  3
  3
  3
  3
  3
  3
  3
  3
  3
  3
  3
  3
  3
  3
  3
  3
  3
  3
  3
  3
  3
  3
  3
  3
  3
  3
  3
  3
  3
  3
  3
  3
  3
  3
  3
  3
  3
  3
  3
  3
  3
  3
  3
  3
  3
  3
  3
  3
  3
  3
  3
  3
  3
  3
  3
  3
  3
  3
  3
  3
  3
  3
  3
  3
  3
  3
  3
  3
  3
  3
  3
  3
  3
  3
  3
  3
  3
  3
  3
  3
  3
  3
  3
  3
  3
  3
  3
  3
  3
  3
CELL_DATA       100
 SCALARS mat             int            1
LOOKUP_TABLE default
         1
         1
         1
         1
         1
         1
         1
         1
         1
         1
         1
         1
         1
         1
         1
         1
         1
         1
         1
         1
         1
         1
         1
         1
         1
         1
         1
         1
         1
         1
         1
         1
         1
         1
         1
         1
         1
         1
         1
         1
         1
         1
         1
         1
         1
         1
         1
         1
         1
         1
         1
         1
         1
         1
         1
         1
         1
         1
         1
         1
         1
         1
         1
         1
         1
         1
         1
         1
         1
         1
         1
         1
         1
         1
         1
         1
         1
         1
         1
         1
         1
         1
         1
         1
         1
         1
         1
         1
         1
         1
         1
         1
         1
         1
         1
         1
         1
         1
         1
         1
 SCALARS elIdG           int            1
LOOKUP_TABLE default
         1
         2
         3
         4
         5
         6
         7
         8
         9
        10
        11
        12
        13
        14
        15
        16
        17
        18
        19
        20
        21
        22
        23
        24
        25
        26
        27
        28
        29
        30
        31
        32
        33
        34
        35
        36
        37
        38
        39
        40
        41
        42
        43
        44
        45
        46
        47
        48
        49
        50
        51
        52
        53
        54
        55
        56
        57
        58
        59
        60
        61
        62
        63
        64
        65
        66
        67
        68
        69
        70
        71
        72
        73
        74
        75
        76
        77
        78
        79
        80
        81
        82
        83
        84
        85
        86
        87
        88
        89
        90
        91
        92
        93
        94
        95
        96
        97
        98
        99
       100
POINT_DATA       101
SCALARS noIdG            int       1
LOOKUP_TABLE default
         1
         2
         3
         4
         5
         6
         7
         8
         9
        10
        11
        12
        13
        14
        15
        16
        17
        18
        19
        20
        21
        22
        23
        24
        25
        26
        27
        28
        29
        30
        31
        32
        33
        34
        35
        36
        37
        38
        39
        40
        41
        42
        43
        44
        45
        46
        47
        48
        49
        50
        51
        52
        53
        54
        55
        56
        57
        58
        59
        60
        61
        62
        63
        64
        65
        66
        67
        68
        69
        70
        71
        72
        73
        74
        75
        76
        77
        78
        79
        80
        81
        82
        83
        84
        85
        86
        87
        88
        89
        90
        91
        92
        93
        94
        95
        96
        97
        98
        99
       100
       101
VECTORS darcyVel        double
   0.10000E+001   0.00000E+000   0.00000E+000
   0.10000E+001   0.00000E+000   0.00000E+000
   0.10000E+001   0.00000E+000   0.00000E+000
   0.10000E+001   0.00000E+000   0.00000E+000
   0.10000E+001   0.00000E+000   0.00000E+000
   0.10000E+001   0.00000E+000   0.00000E+000
   0.10000E+001   0.00000E+000   0.00000E+000
   0.10000E+001   0.00000E+000   0.00000E+000
   0.10000E+001   0.00000E+000   0.00000E+000
   0.10000E+001   0.00000E+000   0.00000E+000
   0.10000E+001   0.00000E+000   0.00000E+000
   0.10000E+001   0.00000E+000   0.00000E+000
   0.10000E+001   0.00000E+000   0.00000E+000
   0.10000E+001   0.00000E+000   0.00000E+000
   0.10000E+001   0.00000E+000   0.00000E+000
   0.10000E+001   0.00000E+000   0.00000E+000
   0.10000E+001   0.00000E+000   0.00000E+000
   0.10000E+001   0.00000E+000   0.00000E+000
   0.10000E+001   0.00000E+000   0.00000E+000
   0.10000E+001   0.00000E+000   0.00000E+000
   0.10000E+001   0.00000E+000   0.00000E+000
   0.10000E+001   0.00000E+000   0.00000E+000
   0.10000E+001   0.00000E+000   0.00000E+000
   0.10000E+001   0.00000E+000   0.00000E+000
   0.10000E+001   0.00000E+000   0.00000E+000
   0.10000E+001   0.00000E+000   0.00000E+000
   0.10000E+001   0.00000E+000   0.00000E+000
   0.10000E+001   0.00000E+000   0.00000E+000
   0.10000E+001   0.00000E+000   0.00000E+000
   0.10000E+001   0.00000E+000   0.00000E+000
   0.10000E+001   0.00000E+000   0.00000E+000
   0.10000E+001   0.00000E+000   0.00000E+000
   0.10000E+001   0.00000E+000   0.00000E+000
   0.10000E+001   0.00000E+000   0.00000E+000
   0.10000E+001   0.00000E+000   0.00000E+000
   0.10000E+001   0.00000E+000   0.00000E+000
   0.10000E+001   0.00000E+000   0.00000E+000
   0.10000E+001   0.00000E+000   0.00000E+000
   0.10000E+001   0.00000E+000   0.00000E+000
   0.10000E+001   0.00000E+000   0.00000E+000
   0.10000E+001   0.00000E+000   0.00000E+000
   0.10000E+001   0.00000E+000   0.00000E+000
   0.10000E+001   0.00000E+000   0.00000E+000
   0.10000E+001   0.00000E+000   0.00000E+000
   0.10000E+001   0.00000E+000   0.00000E+000
   0.10000E+001   0.00000E+000   0.00000E+000
   0.10000E+001   0.00000E+000   0.00000E+000
   0.10000E+001   0.00000E+000   0.00000E+000
   0.10000E+001   0.00000E+000   0.00000E+000
   0.10000E+001   0.00000E+000   0.00000E+000
   0.10000E+001   0.00000E+000   0.00000E+000
   0.10000E+001   0.00000E+000   0.00000E+000
   0.10000E+001   0.00000E+000   0.00000E+000
   0.10000E+001   0.00000E+000   0.00000E+000
   0.10000E+001   0.00000E+000   0.00000E+000
   0.10000E+001   0.00000E+000   0.00000E+000
   0.10000E+001   0.00000E+000   0.00000E+000
   0.10000E+001   0.00000E+000   0.00000E+000
   0.10000E+001   0.00000E+000   0.00000E+000
   0.10000E+001   0.00000E+000   0.00000E+000
   0.10000E+001   0.00000E+000   0.00000E+000
   0.10000E+001   0.00000E+000   0.00000E+000
   0.10000E+001   0.00000E+000   0.00000E+000
   0.10000E+001   0.00000E+000   0.00000E+000
   0.10000E+001   0.00000E+000   0.00000E+000
   0.10000E+001   0.00000E+000   0.00000E+000
   0.10000E+001   0.00000E+000   0.00000E+000
   0.10000E+001   0.00000E+000   0.00000E+000
   0.10000E+001   0.00000E+000   0.00000E+000
   0.10000E+001   0.00000E+000   0.00000E+000
   0.10000E+001   0.00000E+000   0.00000E+000
   0.10000E+001   0.00000E+000   0.00000E+000
   0.10000E+001   0.00000E+000   0.00000E+000
   0.10000E+001   0.00000E+000   0.00000E+000
   0.10000E+001   0.00000E+000   0.00000E+000
   0.10000E+001   0.00000E+000   0.00000E+000
   0.10000E+001   0.00000E+000   0.00000E+000
   0.10000E+001   0.00000E+000   0.00000E+000
   0.10000E+001   0.00000E+000   0.00000E+000
   0.10000E+001   0.00000E+000   0.00000E+000
   0.10000E+001   0.00000E+000   0.00000E+000
   0.10000E+001   0.00000E+000   0.00000E+000
   0.10000E+001   0.00000E+000   0.00000E+000
   0.10000E+001   0.00000E+000   0.00000E+000
   0.10000E+001   0.00000E+000   0.00000E+000
   0.10000E+001   0.00000E+000   0.00000E+000
   0.10000E+001   0.00000E+000   0.00000E+000
   0.10000E+001   0.00000E+000   0.00000E+000
   0.10000E+001   0.00000E+000   0.00000E+000
   0.10000E+001   0.00000E+000   0.00000E+000
   0.10000E+001   0.00000E+000   0.00000E+000
   0.10000E+001   0.00000E+000   0.00000E+000
   0.10000E+001   0.00000E+000   0.00000E+000
   0.10000E+001   0.00000E+000   0.00000E+000
   0.10000E+001   0.00000E+000   0.00000E+000
   0.10000E+001   0.00000E+000   0.00000E+000
   0.10000E+001   0.00000E+000   0.00000E+000
   0.10000E+001   0.00000E+000   0.00000E+000
   0.10000E+001   0.00000E+000   0.00000E+000
   0.10000E+001   0.00000E+000   0.00000E+000
   0.10000E+001   0.00000E+000   0.00000E+000
SCALARS cCO2             double    1
LOOKUP_TABLE default
   0.10000E+001
   0.10000E+001
   0.99999E+000
   0.99997E+000
   0.99994E+000
   0.99989E+000
   0.99980E+000
   0.99966E+000
   0.99944E+000
   0.99911E+000
   0.99861E+000
   0.99789E+000
   0.99686E+000
   0.99542E+000
   0.99347E+000
   0.99085E+000
   0.98740E+000
   0.98294E+000
   0.97728E+000
   0.97019E+000
   0.96148E+000
   0.95092E+000
   0.93831E+000
   0.92346E+000
   0.90624E+000
   0.88653E+000
   0.86425E+000
   0.83941E+000
   0.81205E+000
   0.78227E+000
   0.75026E+000
   0.71622E+000
   0.68045E+000
   0.64326E+000
   0.60500E+000
   0.56606E+000
   0.52680E+000
   0.48762E+000
   0.44890E+000
   0.41097E+000
   0.37417E+000
   0.33877E+000
   0.30501E+000
   0.27310E+000
   0.24316E+000
   0.21532E+000
   0.18961E+000
   0.16607E+000
   0.14466E+000
   0.12534E+000
   0.10802E+000
   0.92603E-001
   0.78976E-001
   0.67010E-001
   0.56569E-001
   0.47516E-001
   0.39716E-001
   0.33034E-001
   0.27346E-001
   0.22530E-001
   0.18476E-001
   0.15082E-001
   0.12256E-001
   0.99156E-002
   0.79871E-002
   0.64060E-002
   0.51162E-002
   0.40691E-002
   0.32231E-002
   0.25427E-002
   0.19980E-002
   0.15639E-002
   0.12194E-002
   0.94723E-003
   0.73308E-003
   0.56528E-003
   0.43433E-003
   0.33254E-003
   0.25372E-003
   0.19293E-003
   0.14621E-003
   0.11044E-003
   0.83147E-004
   0.62401E-004
   0.46684E-004
   0.34818E-004
   0.25889E-004
   0.19193E-004
   0.14186E-004
   0.10456E-004
   0.76840E-005
   0.56313E-005
   0.41155E-005
   0.29996E-005
   0.21804E-005
   0.15808E-005
   0.11433E-005
   0.82563E-006
   0.59794E-006
   0.44468E-006
   0.37952E-006
