# vtk DataFile Version 3.0
Malha poro-quimico-mec        
ASCII
DATASET UNSTRUCTURED_GRID
FIELD FieldData 4
TIME_S 1 1 double
        0.000000
TIME_H 1 1 double
        0.000000
TIME_D 1 1 double
        0.000000
CYCLE 1 1 int
      100
POINTS         11 double
    0.00000E+00    0.00000E+00    0.00000E+00
    0.10000E+00    0.00000E+00    0.00000E+00
    0.20000E+00    0.00000E+00    0.00000E+00
    0.30000E+00    0.00000E+00    0.00000E+00
    0.40000E+00    0.00000E+00    0.00000E+00
    0.50000E+00    0.00000E+00    0.00000E+00
    0.60000E+00    0.00000E+00    0.00000E+00
    0.70000E+00    0.00000E+00    0.00000E+00
    0.80000E+00    0.00000E+00    0.00000E+00
    0.90000E+00    0.00000E+00    0.00000E+00
    0.10000E+01    0.00000E+00    0.00000E+00
CELLS         10        30
         2         0         1
         2         1         2
         2         2         3
         2         3         4
         2         4         5
         2         5         6
         2         6         7
         2         7         8
         2         8         9
         2         9        10
CELL_TYPES         10
  3
  3
  3
  3
  3
  3
  3
  3
  3
  3
CELL_DATA        10
 SCALARS mat             int            1
LOOKUP_TABLE default
         1
         1
         1
         1
         1
         1
         1
         1
         1
         1
 SCALARS elIdG           int            1
LOOKUP_TABLE default
         1
         2
         3
         4
         5
         6
         7
         8
         9
        10
POINT_DATA        11
SCALARS noIdG            int       1
LOOKUP_TABLE default
         1
         2
         3
         4
         5
         6
         7
         8
         9
        10
        11
VECTORS darcyVel        double
   0.50000E+000   0.00000E+000   0.00000E+000
   0.50000E+000   0.00000E+000   0.00000E+000
   0.50000E+000   0.00000E+000   0.00000E+000
   0.50000E+000   0.00000E+000   0.00000E+000
   0.50000E+000   0.00000E+000   0.00000E+000
   0.50000E+000   0.00000E+000   0.00000E+000
   0.50000E+000   0.00000E+000   0.00000E+000
   0.50000E+000   0.00000E+000   0.00000E+000
   0.50000E+000   0.00000E+000   0.00000E+000
   0.50000E+000   0.00000E+000   0.00000E+000
   0.50000E+000   0.00000E+000   0.00000E+000
SCALARS cCO2             double    1
LOOKUP_TABLE default
   0.10000E+001
   0.99999E+000
   0.99996E+000
   0.99984E+000
   0.99944E+000
   0.99803E+000
   0.99314E+000
   0.97616E+000
   0.91716E+000
   0.71217E+000
   0.00000E+000
