# vtk DataFile Version 3.0
Malha poro mec                
ASCII
DATASET UNSTRUCTURED_GRID
FIELD FieldData 4
TIME_S 1 1 double
    19000.000000
TIME_H 1 1 double
        5.277778
TIME_D 1 1 double
        0.219907
CYCLE 1 1 int
       19
POINTS          5 double
    0.00000E+00    0.00000E+00    0.00000E+00
    0.25000E+00    0.00000E+00    0.00000E+00
    0.50000E+00    0.00000E+00    0.00000E+00
    0.75000E+00    0.00000E+00    0.00000E+00
    0.10000E+01    0.00000E+00    0.00000E+00
CELLS          4        12
         2         0         1
         2         1         2
         2         2         3
         2         3         4
CELL_TYPES          4
  3
  3
  3
  3
CELL_DATA         4
 SCALARS mat             int            1
LOOKUP_TABLE default
         1
         1
         1
         1
 SCALARS elIdG           int            1
LOOKUP_TABLE default
         1
         2
         3
         4
POINT_DATA         5
SCALARS noIdG            int       1
LOOKUP_TABLE default
         1
         2
         3
         4
         5
VECTORS desloc          double
   0.00000E+000   0.00000E+000   0.00000E+000
  -0.15710E-001   0.00000E+000   0.00000E+000
  -0.32411E-001   0.00000E+000   0.00000E+000
  -0.50941E-001   0.00000E+000   0.00000E+000
  -0.71863E-001   0.00000E+000   0.00000E+000
SCALARS pressao          double    1
LOOKUP_TABLE default
   0.45713E+000
   0.42234E+000
   0.32324E+000
   0.17494E+000
   0.00000E+000
VECTORS darcyFlux       double
   0.15311E-006   0.00000E+000   0.00000E+000
   0.29456E-006   0.00000E+000   0.00000E+000
   0.54428E-006   0.00000E+000   0.00000E+000
   0.71113E-006   0.00000E+000   0.00000E+000
   0.76973E-006   0.00000E+000   0.00000E+000
