# vtk DataFile Version 3.0
Malha poro mec                
ASCII
DATASET UNSTRUCTURED_GRID
FIELD FieldData 4
TIME_S 1 1 double
    68000.000000
TIME_H 1 1 double
       18.888889
TIME_D 1 1 double
        0.787037
CYCLE 1 1 int
       68
POINTS          5 double
    0.00000E+00    0.00000E+00    0.00000E+00
    0.25000E+00    0.00000E+00    0.00000E+00
    0.50000E+00    0.00000E+00    0.00000E+00
    0.75000E+00    0.00000E+00    0.00000E+00
    0.10000E+01    0.00000E+00    0.00000E+00
CELLS          4        12
         2         0         1
         2         1         2
         2         2         3
         2         3         4
CELL_TYPES          4
  3
  3
  3
  3
CELL_DATA         4
 SCALARS mat             int            1
LOOKUP_TABLE default
         1
         1
         1
         1
 SCALARS elIdG           int            1
LOOKUP_TABLE default
         1
         2
         3
         4
POINT_DATA         5
SCALARS noIdG            int       1
LOOKUP_TABLE default
         1
         2
         3
         4
         5
VECTORS desloc          double
   0.00000E+000   0.00000E+000   0.00000E+000
  -0.22071E-001   0.00000E+000   0.00000E+000
  -0.44164E-001   0.00000E+000   0.00000E+000
  -0.66297E-001   0.00000E+000   0.00000E+000
  -0.88484E-001   0.00000E+000   0.00000E+000
SCALARS pressao          double    1
LOOKUP_TABLE default
   0.10171E-001
   0.93969E-002
   0.71921E-002
   0.38923E-002
   0.00000E+000
VECTORS darcyFlux       double
   0.34066E-008   0.00000E+000   0.00000E+000
   0.65539E-008   0.00000E+000   0.00000E+000
   0.12110E-007   0.00000E+000   0.00000E+000
   0.15823E-007   0.00000E+000   0.00000E+000
   0.17126E-007   0.00000E+000   0.00000E+000
