# vtk DataFile Version 3.0
Malha poro mec                
ASCII
DATASET UNSTRUCTURED_GRID
FIELD FieldData 4
TIME_S 1 1 double
    12000.000000
TIME_H 1 1 double
        3.333333
TIME_D 1 1 double
        0.138889
CYCLE 1 1 int
       12
POINTS          5 double
    0.00000E+00    0.00000E+00    0.00000E+00
    0.25000E+00    0.00000E+00    0.00000E+00
    0.50000E+00    0.00000E+00    0.00000E+00
    0.75000E+00    0.00000E+00    0.00000E+00
    0.10000E+01    0.00000E+00    0.00000E+00
CELLS          4        12
         2         0         1
         2         1         2
         2         2         3
         2         3         4
CELL_TYPES          4
  3
  3
  3
  3
CELL_DATA         4
 SCALARS mat             int            1
LOOKUP_TABLE default
         1
         1
         1
         1
 SCALARS elIdG           int            1
LOOKUP_TABLE default
         1
         2
         3
         4
POINT_DATA         5
SCALARS noIdG            int       1
LOOKUP_TABLE default
         1
         2
         3
         4
         5
VECTORS desloc          double
   0.00000E+000   0.00000E+000   0.00000E+000
  -0.11013E-001   0.00000E+000   0.00000E+000
  -0.23730E-001   0.00000E+000   0.00000E+000
  -0.39597E-001   0.00000E+000   0.00000E+000
  -0.59584E-001   0.00000E+000   0.00000E+000
SCALARS pressao          double    1
LOOKUP_TABLE default
   0.78718E+000
   0.72733E+000
   0.55678E+000
   0.30139E+000
   0.00000E+000
VECTORS darcyFlux       double
   0.26338E-006   0.00000E+000   0.00000E+000
   0.50688E-006   0.00000E+000   0.00000E+000
   0.93705E-006   0.00000E+000   0.00000E+000
   0.12249E-005   0.00000E+000   0.00000E+000
   0.13261E-005   0.00000E+000   0.00000E+000
