# vtk DataFile Version 3.0
Malha poro mec                
ASCII
DATASET UNSTRUCTURED_GRID
FIELD FieldData 4
TIME_S 1 1 double
    20000.000000
TIME_H 1 1 double
        5.555556
TIME_D 1 1 double
        0.231481
CYCLE 1 1 int
       20
POINTS          5 double
    0.00000E+00    0.00000E+00    0.00000E+00
    0.25000E+00    0.00000E+00    0.00000E+00
    0.50000E+00    0.00000E+00    0.00000E+00
    0.75000E+00    0.00000E+00    0.00000E+00
    0.10000E+01    0.00000E+00    0.00000E+00
CELLS          4        12
         2         0         1
         2         1         2
         2         2         3
         2         3         4
CELL_TYPES          4
  3
  3
  3
  3
CELL_DATA         4
 SCALARS mat             int            1
LOOKUP_TABLE default
         1
         1
         1
         1
 SCALARS elIdG           int            1
LOOKUP_TABLE default
         1
         2
         3
         4
POINT_DATA         5
SCALARS noIdG            int       1
LOOKUP_TABLE default
         1
         2
         3
         4
         5
VECTORS desloc          double
   0.00000E+000   0.00000E+000   0.00000E+000
  -0.16196E-001   0.00000E+000   0.00000E+000
  -0.33309E-001   0.00000E+000   0.00000E+000
  -0.52115E-001   0.00000E+000   0.00000E+000
  -0.73133E-001   0.00000E+000   0.00000E+000
SCALARS pressao          double    1
LOOKUP_TABLE default
   0.42298E+000
   0.39078E+000
   0.29909E+000
   0.16187E+000
   0.00000E+000
VECTORS darcyFlux       double
   0.14167E-006   0.00000E+000   0.00000E+000
   0.27255E-006   0.00000E+000   0.00000E+000
   0.50361E-006   0.00000E+000   0.00000E+000
   0.65800E-006   0.00000E+000   0.00000E+000
   0.71221E-006   0.00000E+000   0.00000E+000
