# vtk DataFile Version 3.0
Malha poro mec                
ASCII
DATASET UNSTRUCTURED_GRID
FIELD FieldData 4
TIME_S 1 1 double
    34000.000000
TIME_H 1 1 double
        9.444444
TIME_D 1 1 double
        0.393519
CYCLE 1 1 int
       34
POINTS          5 double
    0.00000E+00    0.00000E+00    0.00000E+00
    0.25000E+00    0.00000E+00    0.00000E+00
    0.50000E+00    0.00000E+00    0.00000E+00
    0.75000E+00    0.00000E+00    0.00000E+00
    0.10000E+01    0.00000E+00    0.00000E+00
CELLS          4        12
         2         0         1
         2         1         2
         2         2         3
         2         3         4
CELL_TYPES          4
  3
  3
  3
  3
CELL_DATA         4
 SCALARS mat             int            1
LOOKUP_TABLE default
         1
         1
         1
         1
 SCALARS elIdG           int            1
LOOKUP_TABLE default
         1
         2
         3
         4
POINT_DATA         5
SCALARS noIdG            int       1
LOOKUP_TABLE default
         1
         2
         3
         4
         5
VECTORS desloc          double
   0.00000E+000   0.00000E+000   0.00000E+000
  -0.20186E-001   0.00000E+000   0.00000E+000
  -0.40682E-001   0.00000E+000   0.00000E+000
  -0.61748E-001   0.00000E+000   0.00000E+000
  -0.83560E-001   0.00000E+000   0.00000E+000
SCALARS pressao          double    1
LOOKUP_TABLE default
   0.14260E+000
   0.13175E+000
   0.10083E+000
   0.54571E-001
   0.00000E+000
VECTORS darcyFlux       double
   0.47761E-007   0.00000E+000   0.00000E+000
   0.91887E-007   0.00000E+000   0.00000E+000
   0.16979E-006   0.00000E+000   0.00000E+000
   0.22184E-006   0.00000E+000   0.00000E+000
   0.24011E-006   0.00000E+000   0.00000E+000
