# vtk DataFile Version 3.0
Malha poro mec                
ASCII
DATASET UNSTRUCTURED_GRID
FIELD FieldData 4
TIME_S 1 1 double
    50000.000000
TIME_H 1 1 double
       13.888889
TIME_D 1 1 double
        0.578704
CYCLE 1 1 int
       50
POINTS          5 double
    0.00000E+00    0.00000E+00    0.00000E+00
    0.25000E+00    0.00000E+00    0.00000E+00
    0.50000E+00    0.00000E+00    0.00000E+00
    0.75000E+00    0.00000E+00    0.00000E+00
    0.10000E+01    0.00000E+00    0.00000E+00
CELLS          4        12
         2         0         1
         2         1         2
         2         2         3
         2         3         4
CELL_TYPES          4
  3
  3
  3
  3
CELL_DATA         4
 SCALARS mat             int            1
LOOKUP_TABLE default
         1
         1
         1
         1
 SCALARS elIdG           int            1
LOOKUP_TABLE default
         1
         2
         3
         4
POINT_DATA         5
SCALARS noIdG            int       1
LOOKUP_TABLE default
         1
         2
         3
         4
         5
VECTORS desloc          double
   0.00000E+000   0.00000E+000   0.00000E+000
  -0.21630E-001   0.00000E+000   0.00000E+000
  -0.43349E-001   0.00000E+000   0.00000E+000
  -0.65233E-001   0.00000E+000   0.00000E+000
  -0.87332E-001   0.00000E+000   0.00000E+000
SCALARS pressao          double    1
LOOKUP_TABLE default
   0.41160E-001
   0.38027E-001
   0.29104E-001
   0.15751E-001
   0.00000E+000
VECTORS darcyFlux       double
   0.13786E-007   0.00000E+000   0.00000E+000
   0.26522E-007   0.00000E+000   0.00000E+000
   0.49006E-007   0.00000E+000   0.00000E+000
   0.64030E-007   0.00000E+000   0.00000E+000
   0.69305E-007   0.00000E+000   0.00000E+000
