# vtk DataFile Version 3.0
Malha poro mec                
ASCII
DATASET UNSTRUCTURED_GRID
FIELD FieldData 4
TIME_S 1 1 double
    58000.000000
TIME_H 1 1 double
       16.111111
TIME_D 1 1 double
        0.671296
CYCLE 1 1 int
       58
POINTS          5 double
    0.00000E+00    0.00000E+00    0.00000E+00
    0.25000E+00    0.00000E+00    0.00000E+00
    0.50000E+00    0.00000E+00    0.00000E+00
    0.75000E+00    0.00000E+00    0.00000E+00
    0.10000E+01    0.00000E+00    0.00000E+00
CELLS          4        12
         2         0         1
         2         1         2
         2         2         3
         2         3         4
CELL_TYPES          4
  3
  3
  3
  3
CELL_DATA         4
 SCALARS mat             int            1
LOOKUP_TABLE default
         1
         1
         1
         1
 SCALARS elIdG           int            1
LOOKUP_TABLE default
         1
         2
         3
         4
POINT_DATA         5
SCALARS noIdG            int       1
LOOKUP_TABLE default
         1
         2
         3
         4
         5
VECTORS desloc          double
   0.00000E+000   0.00000E+000   0.00000E+000
  -0.21901E-001   0.00000E+000   0.00000E+000
  -0.43850E-001   0.00000E+000   0.00000E+000
  -0.65887E-001   0.00000E+000   0.00000E+000
  -0.88040E-001   0.00000E+000   0.00000E+000
SCALARS pressao          double    1
LOOKUP_TABLE default
   0.22113E-001
   0.20430E-001
   0.15636E-001
   0.84623E-002
   0.00000E+000
VECTORS darcyFlux       double
   0.74064E-008   0.00000E+000   0.00000E+000
   0.14249E-007   0.00000E+000   0.00000E+000
   0.26329E-007   0.00000E+000   0.00000E+000
   0.34400E-007   0.00000E+000   0.00000E+000
   0.37234E-007   0.00000E+000   0.00000E+000
