# vtk DataFile Version 3.0
Malha poro mec                
ASCII
DATASET UNSTRUCTURED_GRID
FIELD FieldData 4
TIME_S 1 1 double
    18000.000000
TIME_H 1 1 double
        5.000000
TIME_D 1 1 double
        0.208333
CYCLE 1 1 int
       18
POINTS          5 double
    0.00000E+00    0.00000E+00    0.00000E+00
    0.25000E+00    0.00000E+00    0.00000E+00
    0.50000E+00    0.00000E+00    0.00000E+00
    0.75000E+00    0.00000E+00    0.00000E+00
    0.10000E+01    0.00000E+00    0.00000E+00
CELLS          4        12
         2         0         1
         2         1         2
         2         2         3
         2         3         4
CELL_TYPES          4
  3
  3
  3
  3
CELL_DATA         4
 SCALARS mat             int            1
LOOKUP_TABLE default
         1
         1
         1
         1
 SCALARS elIdG           int            1
LOOKUP_TABLE default
         1
         2
         3
         4
POINT_DATA         5
SCALARS noIdG            int       1
LOOKUP_TABLE default
         1
         2
         3
         4
         5
VECTORS desloc          double
   0.00000E+000   0.00000E+000   0.00000E+000
  -0.15185E-001   0.00000E+000   0.00000E+000
  -0.31440E-001   0.00000E+000   0.00000E+000
  -0.49673E-001   0.00000E+000   0.00000E+000
  -0.70490E-001   0.00000E+000   0.00000E+000
SCALARS pressao          double    1
LOOKUP_TABLE default
   0.49405E+000
   0.45644E+000
   0.34935E+000
   0.18907E+000
   0.00000E+000
VECTORS darcyFlux       double
   0.16547E-006   0.00000E+000   0.00000E+000
   0.31834E-006   0.00000E+000   0.00000E+000
   0.58823E-006   0.00000E+000   0.00000E+000
   0.76856E-006   0.00000E+000   0.00000E+000
   0.83189E-006   0.00000E+000   0.00000E+000
