# vtk DataFile Version 3.0
Malha poro mec                
ASCII
DATASET UNSTRUCTURED_GRID
FIELD FieldData 4
TIME_S 1 1 double
     2000.000000
TIME_H 1 1 double
        0.555556
TIME_D 1 1 double
        0.023148
CYCLE 1 1 int
        2
POINTS          5 double
    0.00000E+00    0.00000E+00    0.00000E+00
    0.25000E+00    0.00000E+00    0.00000E+00
    0.50000E+00    0.00000E+00    0.00000E+00
    0.75000E+00    0.00000E+00    0.00000E+00
    0.10000E+01    0.00000E+00    0.00000E+00
CELLS          4        12
         2         0         1
         2         1         2
         2         2         3
         2         3         4
CELL_TYPES          4
  3
  3
  3
  3
CELL_DATA         4
 SCALARS mat             int            1
LOOKUP_TABLE default
         1
         1
         1
         1
 SCALARS elIdG           int            1
LOOKUP_TABLE default
         1
         2
         3
         4
POINT_DATA         5
SCALARS noIdG            int       1
LOOKUP_TABLE default
         1
         2
         3
         4
         5
VECTORS desloc          double
   0.00000E+000   0.00000E+000   0.00000E+000
  -0.17675E-003   0.00000E+000   0.00000E+000
  -0.11972E-002   0.00000E+000   0.00000E+000
  -0.68563E-002   0.00000E+000   0.00000E+000
  -0.22740E-001   0.00000E+000   0.00000E+000
SCALARS pressao          double    1
LOOKUP_TABLE default
   0.14963E+001
   0.14831E+001
   0.13823E+001
   0.85597E+000
   0.00000E+000
VECTORS darcyFlux       double
   0.58473E-007   0.00000E+000   0.00000E+000
   0.25093E-006   0.00000E+000   0.00000E+000
   0.13796E-005   0.00000E+000   0.00000E+000
   0.30410E-005   0.00000E+000   0.00000E+000
   0.37663E-005   0.00000E+000   0.00000E+000
