# vtk DataFile Version 3.0
Malha poro mec                
ASCII
DATASET UNSTRUCTURED_GRID
FIELD FieldData 4
TIME_S 1 1 double
    48000.000000
TIME_H 1 1 double
       13.333333
TIME_D 1 1 double
        0.555556
CYCLE 1 1 int
       48
POINTS          5 double
    0.00000E+00    0.00000E+00    0.00000E+00
    0.25000E+00    0.00000E+00    0.00000E+00
    0.50000E+00    0.00000E+00    0.00000E+00
    0.75000E+00    0.00000E+00    0.00000E+00
    0.10000E+01    0.00000E+00    0.00000E+00
CELLS          4        12
         2         0         1
         2         1         2
         2         2         3
         2         3         4
CELL_TYPES          4
  3
  3
  3
  3
CELL_DATA         4
 SCALARS mat             int            1
LOOKUP_TABLE default
         1
         1
         1
         1
 SCALARS elIdG           int            1
LOOKUP_TABLE default
         1
         2
         3
         4
POINT_DATA         5
SCALARS noIdG            int       1
LOOKUP_TABLE default
         1
         2
         3
         4
         5
VECTORS desloc          double
   0.00000E+000   0.00000E+000   0.00000E+000
  -0.21531E-001   0.00000E+000   0.00000E+000
  -0.43167E-001   0.00000E+000   0.00000E+000
  -0.64995E-001   0.00000E+000   0.00000E+000
  -0.87075E-001   0.00000E+000   0.00000E+000
SCALARS pressao          double    1
LOOKUP_TABLE default
   0.48076E-001
   0.44417E-001
   0.33995E-001
   0.18398E-001
   0.00000E+000
VECTORS darcyFlux       double
   0.16102E-007   0.00000E+000   0.00000E+000
   0.30979E-007   0.00000E+000   0.00000E+000
   0.57241E-007   0.00000E+000   0.00000E+000
   0.74789E-007   0.00000E+000   0.00000E+000
   0.80951E-007   0.00000E+000   0.00000E+000
