# vtk DataFile Version 3.0
Malha poro mec                
ASCII
DATASET UNSTRUCTURED_GRID
FIELD FieldData 4
TIME_S 1 1 double
     5000.000000
TIME_H 1 1 double
        1.388889
TIME_D 1 1 double
        0.057870
CYCLE 1 1 int
        5
POINTS          5 double
    0.00000E+00    0.00000E+00    0.00000E+00
    0.25000E+00    0.00000E+00    0.00000E+00
    0.50000E+00    0.00000E+00    0.00000E+00
    0.75000E+00    0.00000E+00    0.00000E+00
    0.10000E+01    0.00000E+00    0.00000E+00
CELLS          4        12
         2         0         1
         2         1         2
         2         2         3
         2         3         4
CELL_TYPES          4
  3
  3
  3
  3
CELL_DATA         4
 SCALARS mat             int            1
LOOKUP_TABLE default
         1
         1
         1
         1
 SCALARS elIdG           int            1
LOOKUP_TABLE default
         1
         2
         3
         4
POINT_DATA         5
SCALARS noIdG            int       1
LOOKUP_TABLE default
         1
         2
         3
         4
         5
VECTORS desloc          double
   0.00000E+000   0.00000E+000   0.00000E+000
  -0.31567E-002   0.00000E+000   0.00000E+000
  -0.89577E-002   0.00000E+000   0.00000E+000
  -0.19964E-001   0.00000E+000   0.00000E+000
  -0.38182E-001   0.00000E+000   0.00000E+000
SCALARS pressao          double    1
LOOKUP_TABLE default
   0.13324E+001
   0.12441E+001
   0.97496E+000
   0.54043E+000
   0.00000E+000
VECTORS darcyFlux       double
   0.38854E-006   0.00000E+000   0.00000E+000
   0.78642E-006   0.00000E+000   0.00000E+000
   0.15481E-005   0.00000E+000   0.00000E+000
   0.21449E-005   0.00000E+000   0.00000E+000
   0.23779E-005   0.00000E+000   0.00000E+000
