# vtk DataFile Version 3.0
Malha poro mec                
ASCII
DATASET UNSTRUCTURED_GRID
FIELD FieldData 4
TIME_S 1 1 double
    46000.000000
TIME_H 1 1 double
       12.777778
TIME_D 1 1 double
        0.532407
CYCLE 1 1 int
       46
POINTS          5 double
    0.00000E+00    0.00000E+00    0.00000E+00
    0.25000E+00    0.00000E+00    0.00000E+00
    0.50000E+00    0.00000E+00    0.00000E+00
    0.75000E+00    0.00000E+00    0.00000E+00
    0.10000E+01    0.00000E+00    0.00000E+00
CELLS          4        12
         2         0         1
         2         1         2
         2         2         3
         2         3         4
CELL_TYPES          4
  3
  3
  3
  3
CELL_DATA         4
 SCALARS mat             int            1
LOOKUP_TABLE default
         1
         1
         1
         1
 SCALARS elIdG           int            1
LOOKUP_TABLE default
         1
         2
         3
         4
POINT_DATA         5
SCALARS noIdG            int       1
LOOKUP_TABLE default
         1
         2
         3
         4
         5
VECTORS desloc          double
   0.00000E+000   0.00000E+000   0.00000E+000
  -0.21416E-001   0.00000E+000   0.00000E+000
  -0.42955E-001   0.00000E+000   0.00000E+000
  -0.64718E-001   0.00000E+000   0.00000E+000
  -0.86774E-001   0.00000E+000   0.00000E+000
SCALARS pressao          double    1
LOOKUP_TABLE default
   0.56155E-001
   0.51880E-001
   0.39707E-001
   0.21489E-001
   0.00000E+000
VECTORS darcyFlux       double
   0.18808E-007   0.00000E+000   0.00000E+000
   0.36184E-007   0.00000E+000   0.00000E+000
   0.66860E-007   0.00000E+000   0.00000E+000
   0.87356E-007   0.00000E+000   0.00000E+000
   0.94554E-007   0.00000E+000   0.00000E+000
