# vtk DataFile Version 3.0
Malha poro mec                
ASCII
DATASET UNSTRUCTURED_GRID
FIELD FieldData 4
TIME_S 1 1 double
    96000.000000
TIME_H 1 1 double
       26.666667
TIME_D 1 1 double
        1.111111
CYCLE 1 1 int
       96
POINTS          5 double
    0.00000E+00    0.00000E+00    0.00000E+00
    0.25000E+00    0.00000E+00    0.00000E+00
    0.50000E+00    0.00000E+00    0.00000E+00
    0.75000E+00    0.00000E+00    0.00000E+00
    0.10000E+01    0.00000E+00    0.00000E+00
CELLS          4        12
         2         0         1
         2         1         2
         2         2         3
         2         3         4
CELL_TYPES          4
  3
  3
  3
  3
CELL_DATA         4
 SCALARS mat             int            1
LOOKUP_TABLE default
         1
         1
         1
         1
 SCALARS elIdG           int            1
LOOKUP_TABLE default
         1
         2
         3
         4
POINT_DATA         5
SCALARS noIdG            int       1
LOOKUP_TABLE default
         1
         2
         3
         4
         5
VECTORS desloc          double
   0.00000E+000   0.00000E+000   0.00000E+000
  -0.22199E-001   0.00000E+000   0.00000E+000
  -0.44401E-001   0.00000E+000   0.00000E+000
  -0.66607E-001   0.00000E+000   0.00000E+000
  -0.88820E-001   0.00000E+000   0.00000E+000
SCALARS pressao          double    1
LOOKUP_TABLE default
   0.11561E-002
   0.10681E-002
   0.81747E-003
   0.44241E-003
   0.00000E+000
VECTORS darcyFlux       double
   0.38720E-009   0.00000E+000   0.00000E+000
   0.74493E-009   0.00000E+000   0.00000E+000
   0.13765E-008   0.00000E+000   0.00000E+000
   0.17984E-008   0.00000E+000   0.00000E+000
   0.19466E-008   0.00000E+000   0.00000E+000
