# vtk DataFile Version 3.0
Malha poro mec                
ASCII
DATASET UNSTRUCTURED_GRID
FIELD FieldData 4
TIME_S 1 1 double
    67000.000000
TIME_H 1 1 double
       18.611111
TIME_D 1 1 double
        0.775463
CYCLE 1 1 int
       67
POINTS          5 double
    0.00000E+00    0.00000E+00    0.00000E+00
    0.25000E+00    0.00000E+00    0.00000E+00
    0.50000E+00    0.00000E+00    0.00000E+00
    0.75000E+00    0.00000E+00    0.00000E+00
    0.10000E+01    0.00000E+00    0.00000E+00
CELLS          4        12
         2         0         1
         2         1         2
         2         2         3
         2         3         4
CELL_TYPES          4
  3
  3
  3
  3
CELL_DATA         4
 SCALARS mat             int            1
LOOKUP_TABLE default
         1
         1
         1
         1
 SCALARS elIdG           int            1
LOOKUP_TABLE default
         1
         2
         3
         4
POINT_DATA         5
SCALARS noIdG            int       1
LOOKUP_TABLE default
         1
         2
         3
         4
         5
VECTORS desloc          double
   0.00000E+000   0.00000E+000   0.00000E+000
  -0.22059E-001   0.00000E+000   0.00000E+000
  -0.44142E-001   0.00000E+000   0.00000E+000
  -0.66269E-001   0.00000E+000   0.00000E+000
  -0.88454E-001   0.00000E+000   0.00000E+000
SCALARS pressao          double    1
LOOKUP_TABLE default
   0.10993E-001
   0.10156E-001
   0.77729E-002
   0.42067E-002
   0.00000E+000
VECTORS darcyFlux       double
   0.36817E-008   0.00000E+000   0.00000E+000
   0.70832E-008   0.00000E+000   0.00000E+000
   0.13088E-007   0.00000E+000   0.00000E+000
   0.17100E-007   0.00000E+000   0.00000E+000
   0.18509E-007   0.00000E+000   0.00000E+000
