# vtk DataFile Version 3.0
Malha poro mec                
ASCII
DATASET UNSTRUCTURED_GRID
FIELD FieldData 4
TIME_S 1 1 double
    57000.000000
TIME_H 1 1 double
       15.833333
TIME_D 1 1 double
        0.659722
CYCLE 1 1 int
       57
POINTS          5 double
    0.00000E+00    0.00000E+00    0.00000E+00
    0.25000E+00    0.00000E+00    0.00000E+00
    0.50000E+00    0.00000E+00    0.00000E+00
    0.75000E+00    0.00000E+00    0.00000E+00
    0.10000E+01    0.00000E+00    0.00000E+00
CELLS          4        12
         2         0         1
         2         1         2
         2         2         3
         2         3         4
CELL_TYPES          4
  3
  3
  3
  3
CELL_DATA         4
 SCALARS mat             int            1
LOOKUP_TABLE default
         1
         1
         1
         1
 SCALARS elIdG           int            1
LOOKUP_TABLE default
         1
         2
         3
         4
POINT_DATA         5
SCALARS noIdG            int       1
LOOKUP_TABLE default
         1
         2
         3
         4
         5
VECTORS desloc          double
   0.00000E+000   0.00000E+000   0.00000E+000
  -0.21876E-001   0.00000E+000   0.00000E+000
  -0.43803E-001   0.00000E+000   0.00000E+000
  -0.65826E-001   0.00000E+000   0.00000E+000
  -0.87974E-001   0.00000E+000   0.00000E+000
SCALARS pressao          double    1
LOOKUP_TABLE default
   0.23899E-001
   0.22080E-001
   0.16899E-001
   0.91457E-002
   0.00000E+000
VECTORS darcyFlux       double
   0.80045E-008   0.00000E+000   0.00000E+000
   0.15400E-007   0.00000E+000   0.00000E+000
   0.28455E-007   0.00000E+000   0.00000E+000
   0.37178E-007   0.00000E+000   0.00000E+000
   0.40241E-007   0.00000E+000   0.00000E+000
