# vtk DataFile Version 3.0
Malha poro mec                
ASCII
DATASET UNSTRUCTURED_GRID
FIELD FieldData 4
TIME_S 1 1 double
    70000.000000
TIME_H 1 1 double
       19.444444
TIME_D 1 1 double
        0.810185
CYCLE 1 1 int
       70
POINTS          5 double
    0.00000E+00    0.00000E+00    0.00000E+00
    0.25000E+00    0.00000E+00    0.00000E+00
    0.50000E+00    0.00000E+00    0.00000E+00
    0.75000E+00    0.00000E+00    0.00000E+00
    0.10000E+01    0.00000E+00    0.00000E+00
CELLS          4        12
         2         0         1
         2         1         2
         2         2         3
         2         3         4
CELL_TYPES          4
  3
  3
  3
  3
CELL_DATA         4
 SCALARS mat             int            1
LOOKUP_TABLE default
         1
         1
         1
         1
 SCALARS elIdG           int            1
LOOKUP_TABLE default
         1
         2
         3
         4
POINT_DATA         5
SCALARS noIdG            int       1
LOOKUP_TABLE default
         1
         2
         3
         4
         5
VECTORS desloc          double
   0.00000E+000   0.00000E+000   0.00000E+000
  -0.22092E-001   0.00000E+000   0.00000E+000
  -0.44202E-001   0.00000E+000   0.00000E+000
  -0.66348E-001   0.00000E+000   0.00000E+000
  -0.88539E-001   0.00000E+000   0.00000E+000
SCALARS pressao          double    1
LOOKUP_TABLE default
   0.87079E-002
   0.80451E-002
   0.61574E-002
   0.33324E-002
   0.00000E+000
VECTORS darcyFlux       double
   0.29165E-008   0.00000E+000   0.00000E+000
   0.56111E-008   0.00000E+000   0.00000E+000
   0.10368E-007   0.00000E+000   0.00000E+000
   0.13546E-007   0.00000E+000   0.00000E+000
   0.14662E-007   0.00000E+000   0.00000E+000
