# vtk DataFile Version 3.0
Malha poro mec                
ASCII
DATASET UNSTRUCTURED_GRID
FIELD FieldData 4
TIME_S 1 1 double
    66000.000000
TIME_H 1 1 double
       18.333333
TIME_D 1 1 double
        0.763889
CYCLE 1 1 int
       66
POINTS          5 double
    0.00000E+00    0.00000E+00    0.00000E+00
    0.25000E+00    0.00000E+00    0.00000E+00
    0.50000E+00    0.00000E+00    0.00000E+00
    0.75000E+00    0.00000E+00    0.00000E+00
    0.10000E+01    0.00000E+00    0.00000E+00
CELLS          4        12
         2         0         1
         2         1         2
         2         2         3
         2         3         4
CELL_TYPES          4
  3
  3
  3
  3
CELL_DATA         4
 SCALARS mat             int            1
LOOKUP_TABLE default
         1
         1
         1
         1
 SCALARS elIdG           int            1
LOOKUP_TABLE default
         1
         2
         3
         4
POINT_DATA         5
SCALARS noIdG            int       1
LOOKUP_TABLE default
         1
         2
         3
         4
         5
VECTORS desloc          double
   0.00000E+000   0.00000E+000   0.00000E+000
  -0.22047E-001   0.00000E+000   0.00000E+000
  -0.44119E-001   0.00000E+000   0.00000E+000
  -0.66239E-001   0.00000E+000   0.00000E+000
  -0.88421E-001   0.00000E+000   0.00000E+000
SCALARS pressao          double    1
LOOKUP_TABLE default
   0.11880E-001
   0.10976E-001
   0.84006E-002
   0.45464E-002
   0.00000E+000
VECTORS darcyFlux       double
   0.39791E-008   0.00000E+000   0.00000E+000
   0.76552E-008   0.00000E+000   0.00000E+000
   0.14145E-007   0.00000E+000   0.00000E+000
   0.18481E-007   0.00000E+000   0.00000E+000
   0.20004E-007   0.00000E+000   0.00000E+000
