# vtk DataFile Version 3.0
Malha poro mec                
ASCII
DATASET UNSTRUCTURED_GRID
FIELD FieldData 4
TIME_S 1 1 double
    77000.000000
TIME_H 1 1 double
       21.388889
TIME_D 1 1 double
        0.891204
CYCLE 1 1 int
       77
POINTS          5 double
    0.00000E+00    0.00000E+00    0.00000E+00
    0.25000E+00    0.00000E+00    0.00000E+00
    0.50000E+00    0.00000E+00    0.00000E+00
    0.75000E+00    0.00000E+00    0.00000E+00
    0.10000E+01    0.00000E+00    0.00000E+00
CELLS          4        12
         2         0         1
         2         1         2
         2         2         3
         2         3         4
CELL_TYPES          4
  3
  3
  3
  3
CELL_DATA         4
 SCALARS mat             int            1
LOOKUP_TABLE default
         1
         1
         1
         1
 SCALARS elIdG           int            1
LOOKUP_TABLE default
         1
         2
         3
         4
POINT_DATA         5
SCALARS noIdG            int       1
LOOKUP_TABLE default
         1
         2
         3
         4
         5
VECTORS desloc          double
   0.00000E+000   0.00000E+000   0.00000E+000
  -0.22144E-001   0.00000E+000   0.00000E+000
  -0.44298E-001   0.00000E+000   0.00000E+000
  -0.66473E-001   0.00000E+000   0.00000E+000
  -0.88675E-001   0.00000E+000   0.00000E+000
SCALARS pressao          double    1
LOOKUP_TABLE default
   0.50561E-002
   0.46712E-002
   0.35752E-002
   0.19349E-002
   0.00000E+000
VECTORS darcyFlux       double
   0.16934E-008   0.00000E+000   0.00000E+000
   0.32580E-008   0.00000E+000   0.00000E+000
   0.60200E-008   0.00000E+000   0.00000E+000
   0.78655E-008   0.00000E+000   0.00000E+000
   0.85135E-008   0.00000E+000   0.00000E+000
