# vtk DataFile Version 3.0
Malha poro mec                
ASCII
DATASET UNSTRUCTURED_GRID
FIELD FieldData 4
TIME_S 1 1 double
    76000.000000
TIME_H 1 1 double
       21.111111
TIME_D 1 1 double
        0.879630
CYCLE 1 1 int
       76
POINTS          5 double
    0.00000E+00    0.00000E+00    0.00000E+00
    0.25000E+00    0.00000E+00    0.00000E+00
    0.50000E+00    0.00000E+00    0.00000E+00
    0.75000E+00    0.00000E+00    0.00000E+00
    0.10000E+01    0.00000E+00    0.00000E+00
CELLS          4        12
         2         0         1
         2         1         2
         2         2         3
         2         3         4
CELL_TYPES          4
  3
  3
  3
  3
CELL_DATA         4
 SCALARS mat             int            1
LOOKUP_TABLE default
         1
         1
         1
         1
 SCALARS elIdG           int            1
LOOKUP_TABLE default
         1
         2
         3
         4
POINT_DATA         5
SCALARS noIdG            int       1
LOOKUP_TABLE default
         1
         2
         3
         4
         5
VECTORS desloc          double
   0.00000E+000   0.00000E+000   0.00000E+000
  -0.22138E-001   0.00000E+000   0.00000E+000
  -0.44288E-001   0.00000E+000   0.00000E+000
  -0.66459E-001   0.00000E+000   0.00000E+000
  -0.88659E-001   0.00000E+000   0.00000E+000
SCALARS pressao          double    1
LOOKUP_TABLE default
   0.54644E-002
   0.50485E-002
   0.38639E-002
   0.20912E-002
   0.00000E+000
VECTORS darcyFlux       double
   0.18302E-008   0.00000E+000   0.00000E+000
   0.35211E-008   0.00000E+000   0.00000E+000
   0.65061E-008   0.00000E+000   0.00000E+000
   0.85007E-008   0.00000E+000   0.00000E+000
   0.92011E-008   0.00000E+000   0.00000E+000
