# vtk DataFile Version 3.0
Malha poro mec                
ASCII
DATASET UNSTRUCTURED_GRID
FIELD FieldData 4
TIME_S 1 1 double
    93000.000000
TIME_H 1 1 double
       25.833333
TIME_D 1 1 double
        1.076389
CYCLE 1 1 int
       93
POINTS          5 double
    0.00000E+00    0.00000E+00    0.00000E+00
    0.25000E+00    0.00000E+00    0.00000E+00
    0.50000E+00    0.00000E+00    0.00000E+00
    0.75000E+00    0.00000E+00    0.00000E+00
    0.10000E+01    0.00000E+00    0.00000E+00
CELLS          4        12
         2         0         1
         2         1         2
         2         2         3
         2         3         4
CELL_TYPES          4
  3
  3
  3
  3
CELL_DATA         4
 SCALARS mat             int            1
LOOKUP_TABLE default
         1
         1
         1
         1
 SCALARS elIdG           int            1
LOOKUP_TABLE default
         1
         2
         3
         4
POINT_DATA         5
SCALARS noIdG            int       1
LOOKUP_TABLE default
         1
         2
         3
         4
         5
VECTORS desloc          double
   0.00000E+000   0.00000E+000   0.00000E+000
  -0.22195E-001   0.00000E+000   0.00000E+000
  -0.44393E-001   0.00000E+000   0.00000E+000
  -0.66597E-001   0.00000E+000   0.00000E+000
  -0.88808E-001   0.00000E+000   0.00000E+000
SCALARS pressao          double    1
LOOKUP_TABLE default
   0.14594E-002
   0.13483E-002
   0.10319E-002
   0.55848E-003
   0.00000E+000
VECTORS darcyFlux       double
   0.48879E-009   0.00000E+000   0.00000E+000
   0.94038E-009   0.00000E+000   0.00000E+000
   0.17376E-008   0.00000E+000   0.00000E+000
   0.22703E-008   0.00000E+000   0.00000E+000
   0.24573E-008   0.00000E+000   0.00000E+000
