# vtk DataFile Version 3.0
Malha poro mec                
ASCII
DATASET UNSTRUCTURED_GRID
FIELD FieldData 4
TIME_S 1 1 double
    10000.000000
TIME_H 1 1 double
        2.777778
TIME_D 1 1 double
        0.115741
CYCLE 1 1 int
       10
POINTS          5 double
    0.00000E+00    0.00000E+00    0.00000E+00
    0.25000E+00    0.00000E+00    0.00000E+00
    0.50000E+00    0.00000E+00    0.00000E+00
    0.75000E+00    0.00000E+00    0.00000E+00
    0.10000E+01    0.00000E+00    0.00000E+00
CELLS          4        12
         2         0         1
         2         1         2
         2         2         3
         2         3         4
CELL_TYPES          4
  3
  3
  3
  3
CELL_DATA         4
 SCALARS mat             int            1
LOOKUP_TABLE default
         1
         1
         1
         1
 SCALARS elIdG           int            1
LOOKUP_TABLE default
         1
         2
         3
         4
POINT_DATA         5
SCALARS noIdG            int       1
LOOKUP_TABLE default
         1
         2
         3
         4
         5
VECTORS desloc          double
   0.00000E+000   0.00000E+000   0.00000E+000
  -0.91342E-002   0.00000E+000   0.00000E+000
  -0.20254E-001   0.00000E+000   0.00000E+000
  -0.35050E-001   0.00000E+000   0.00000E+000
  -0.54659E-001   0.00000E+000   0.00000E+000
SCALARS pressao          double    1
LOOKUP_TABLE default
   0.91907E+000
   0.84939E+000
   0.65062E+000
   0.35239E+000
   0.00000E+000
VECTORS darcyFlux       double
   0.30659E-006   0.00000E+000   0.00000E+000
   0.59060E-006   0.00000E+000   0.00000E+000
   0.10934E-005   0.00000E+000   0.00000E+000
   0.14314E-005   0.00000E+000   0.00000E+000
   0.15505E-005   0.00000E+000   0.00000E+000
