# vtk DataFile Version 3.0
Malha poro mec                
ASCII
DATASET UNSTRUCTURED_GRID
FIELD FieldData 4
TIME_S 1 1 double
    85000.000000
TIME_H 1 1 double
       23.611111
TIME_D 1 1 double
        0.983796
CYCLE 1 1 int
       85
POINTS          5 double
    0.00000E+00    0.00000E+00    0.00000E+00
    0.25000E+00    0.00000E+00    0.00000E+00
    0.50000E+00    0.00000E+00    0.00000E+00
    0.75000E+00    0.00000E+00    0.00000E+00
    0.10000E+01    0.00000E+00    0.00000E+00
CELLS          4        12
         2         0         1
         2         1         2
         2         2         3
         2         3         4
CELL_TYPES          4
  3
  3
  3
  3
CELL_DATA         4
 SCALARS mat             int            1
LOOKUP_TABLE default
         1
         1
         1
         1
 SCALARS elIdG           int            1
LOOKUP_TABLE default
         1
         2
         3
         4
POINT_DATA         5
SCALARS noIdG            int       1
LOOKUP_TABLE default
         1
         2
         3
         4
         5
VECTORS desloc          double
   0.00000E+000   0.00000E+000   0.00000E+000
  -0.22177E-001   0.00000E+000   0.00000E+000
  -0.44360E-001   0.00000E+000   0.00000E+000
  -0.66554E-001   0.00000E+000   0.00000E+000
  -0.88762E-001   0.00000E+000   0.00000E+000
SCALARS pressao          double    1
LOOKUP_TABLE default
   0.27164E-002
   0.25096E-002
   0.19208E-002
   0.10395E-002
   0.00000E+000
VECTORS darcyFlux       double
   0.90980E-009   0.00000E+000   0.00000E+000
   0.17504E-008   0.00000E+000   0.00000E+000
   0.32342E-008   0.00000E+000   0.00000E+000
   0.42257E-008   0.00000E+000   0.00000E+000
   0.45739E-008   0.00000E+000   0.00000E+000
