# vtk DataFile Version 3.0
Malha poro mec                
ASCII
DATASET UNSTRUCTURED_GRID
FIELD FieldData 4
TIME_S 1 1 double
    95000.000000
TIME_H 1 1 double
       26.388889
TIME_D 1 1 double
        1.099537
CYCLE 1 1 int
       95
POINTS          5 double
    0.00000E+00    0.00000E+00    0.00000E+00
    0.25000E+00    0.00000E+00    0.00000E+00
    0.50000E+00    0.00000E+00    0.00000E+00
    0.75000E+00    0.00000E+00    0.00000E+00
    0.10000E+01    0.00000E+00    0.00000E+00
CELLS          4        12
         2         0         1
         2         1         2
         2         2         3
         2         3         4
CELL_TYPES          4
  3
  3
  3
  3
CELL_DATA         4
 SCALARS mat             int            1
LOOKUP_TABLE default
         1
         1
         1
         1
 SCALARS elIdG           int            1
LOOKUP_TABLE default
         1
         2
         3
         4
POINT_DATA         5
SCALARS noIdG            int       1
LOOKUP_TABLE default
         1
         2
         3
         4
         5
VECTORS desloc          double
   0.00000E+000   0.00000E+000   0.00000E+000
  -0.22198E-001   0.00000E+000   0.00000E+000
  -0.44398E-001   0.00000E+000   0.00000E+000
  -0.66604E-001   0.00000E+000   0.00000E+000
  -0.88816E-001   0.00000E+000   0.00000E+000
SCALARS pressao          double    1
LOOKUP_TABLE default
   0.12494E-002
   0.11543E-002
   0.88348E-003
   0.47814E-003
   0.00000E+000
VECTORS darcyFlux       double
   0.41847E-009   0.00000E+000   0.00000E+000
   0.80509E-009   0.00000E+000   0.00000E+000
   0.14876E-008   0.00000E+000   0.00000E+000
   0.19437E-008   0.00000E+000   0.00000E+000
   0.21038E-008   0.00000E+000   0.00000E+000
