# vtk DataFile Version 3.0
Malha poro mec                
ASCII
DATASET UNSTRUCTURED_GRID
FIELD FieldData 4
TIME_S 1 1 double
    28000.000000
TIME_H 1 1 double
        7.777778
TIME_D 1 1 double
        0.324074
CYCLE 1 1 int
       28
POINTS          5 double
    0.00000E+00    0.00000E+00    0.00000E+00
    0.25000E+00    0.00000E+00    0.00000E+00
    0.50000E+00    0.00000E+00    0.00000E+00
    0.75000E+00    0.00000E+00    0.00000E+00
    0.10000E+01    0.00000E+00    0.00000E+00
CELLS          4        12
         2         0         1
         2         1         2
         2         2         3
         2         3         4
CELL_TYPES          4
  3
  3
  3
  3
CELL_DATA         4
 SCALARS mat             int            1
LOOKUP_TABLE default
         1
         1
         1
         1
 SCALARS elIdG           int            1
LOOKUP_TABLE default
         1
         2
         3
         4
POINT_DATA         5
SCALARS noIdG            int       1
LOOKUP_TABLE default
         1
         2
         3
         4
         5
VECTORS desloc          double
   0.00000E+000   0.00000E+000   0.00000E+000
  -0.18982E-001   0.00000E+000   0.00000E+000
  -0.38456E-001   0.00000E+000   0.00000E+000
  -0.58840E-001   0.00000E+000   0.00000E+000
  -0.80412E-001   0.00000E+000   0.00000E+000
SCALARS pressao          double    1
LOOKUP_TABLE default
   0.22724E+000
   0.20995E+000
   0.16069E+000
   0.86962E-001
   0.00000E+000
VECTORS darcyFlux       double
   0.76111E-007   0.00000E+000   0.00000E+000
   0.14643E-006   0.00000E+000   0.00000E+000
   0.27056E-006   0.00000E+000   0.00000E+000
   0.35351E-006   0.00000E+000   0.00000E+000
   0.38263E-006   0.00000E+000   0.00000E+000
