# vtk DataFile Version 3.0
Malha poro mec                
ASCII
DATASET UNSTRUCTURED_GRID
FIELD FieldData 4
TIME_S 1 1 double
    55000.000000
TIME_H 1 1 double
       15.277778
TIME_D 1 1 double
        0.636574
CYCLE 1 1 int
       55
POINTS          5 double
    0.00000E+00    0.00000E+00    0.00000E+00
    0.25000E+00    0.00000E+00    0.00000E+00
    0.50000E+00    0.00000E+00    0.00000E+00
    0.75000E+00    0.00000E+00    0.00000E+00
    0.10000E+01    0.00000E+00    0.00000E+00
CELLS          4        12
         2         0         1
         2         1         2
         2         2         3
         2         3         4
CELL_TYPES          4
  3
  3
  3
  3
CELL_DATA         4
 SCALARS mat             int            1
LOOKUP_TABLE default
         1
         1
         1
         1
 SCALARS elIdG           int            1
LOOKUP_TABLE default
         1
         2
         3
         4
POINT_DATA         5
SCALARS noIdG            int       1
LOOKUP_TABLE default
         1
         2
         3
         4
         5
VECTORS desloc          double
   0.00000E+000   0.00000E+000   0.00000E+000
  -0.21818E-001   0.00000E+000   0.00000E+000
  -0.43697E-001   0.00000E+000   0.00000E+000
  -0.65688E-001   0.00000E+000   0.00000E+000
  -0.87824E-001   0.00000E+000   0.00000E+000
SCALARS pressao          double    1
LOOKUP_TABLE default
   0.27915E-001
   0.25790E-001
   0.19739E-001
   0.10683E-001
   0.00000E+000
VECTORS darcyFlux       double
   0.93495E-008   0.00000E+000   0.00000E+000
   0.17987E-007   0.00000E+000   0.00000E+000
   0.33236E-007   0.00000E+000   0.00000E+000
   0.43425E-007   0.00000E+000   0.00000E+000
   0.47003E-007   0.00000E+000   0.00000E+000
