# vtk DataFile Version 3.0
Malha poro mec                
ASCII
DATASET UNSTRUCTURED_GRID
FIELD FieldData 4
TIME_S 1 1 double
    61000.000000
TIME_H 1 1 double
       16.944444
TIME_D 1 1 double
        0.706019
CYCLE 1 1 int
       61
POINTS          5 double
    0.00000E+00    0.00000E+00    0.00000E+00
    0.25000E+00    0.00000E+00    0.00000E+00
    0.50000E+00    0.00000E+00    0.00000E+00
    0.75000E+00    0.00000E+00    0.00000E+00
    0.10000E+01    0.00000E+00    0.00000E+00
CELLS          4        12
         2         0         1
         2         1         2
         2         2         3
         2         3         4
CELL_TYPES          4
  3
  3
  3
  3
CELL_DATA         4
 SCALARS mat             int            1
LOOKUP_TABLE default
         1
         1
         1
         1
 SCALARS elIdG           int            1
LOOKUP_TABLE default
         1
         2
         3
         4
POINT_DATA         5
SCALARS noIdG            int       1
LOOKUP_TABLE default
         1
         2
         3
         4
         5
VECTORS desloc          double
   0.00000E+000   0.00000E+000   0.00000E+000
  -0.21966E-001   0.00000E+000   0.00000E+000
  -0.43971E-001   0.00000E+000   0.00000E+000
  -0.66045E-001   0.00000E+000   0.00000E+000
  -0.88211E-001   0.00000E+000   0.00000E+000
SCALARS pressao          double    1
LOOKUP_TABLE default
   0.17517E-001
   0.16184E-001
   0.12387E-001
   0.67036E-002
   0.00000E+000
VECTORS darcyFlux       double
   0.58671E-008   0.00000E+000   0.00000E+000
   0.11288E-007   0.00000E+000   0.00000E+000
   0.20857E-007   0.00000E+000   0.00000E+000
   0.27250E-007   0.00000E+000   0.00000E+000
   0.29496E-007   0.00000E+000   0.00000E+000
