# vtk DataFile Version 3.0
Malha poro mec                
ASCII
DATASET UNSTRUCTURED_GRID
FIELD FieldData 4
TIME_S 1 1 double
    39000.000000
TIME_H 1 1 double
       10.833333
TIME_D 1 1 double
        0.451389
CYCLE 1 1 int
       39
POINTS          5 double
    0.00000E+00    0.00000E+00    0.00000E+00
    0.25000E+00    0.00000E+00    0.00000E+00
    0.50000E+00    0.00000E+00    0.00000E+00
    0.75000E+00    0.00000E+00    0.00000E+00
    0.10000E+01    0.00000E+00    0.00000E+00
CELLS          4        12
         2         0         1
         2         1         2
         2         2         3
         2         3         4
CELL_TYPES          4
  3
  3
  3
  3
CELL_DATA         4
 SCALARS mat             int            1
LOOKUP_TABLE default
         1
         1
         1
         1
 SCALARS elIdG           int            1
LOOKUP_TABLE default
         1
         2
         3
         4
POINT_DATA         5
SCALARS noIdG            int       1
LOOKUP_TABLE default
         1
         2
         3
         4
         5
VECTORS desloc          double
   0.00000E+000   0.00000E+000   0.00000E+000
  -0.20839E-001   0.00000E+000   0.00000E+000
  -0.41888E-001   0.00000E+000   0.00000E+000
  -0.63324E-001   0.00000E+000   0.00000E+000
  -0.85266E-001   0.00000E+000   0.00000E+000
SCALARS pressao          double    1
LOOKUP_TABLE default
   0.96713E-001
   0.89351E-001
   0.68386E-001
   0.37010E-001
   0.00000E+000
VECTORS darcyFlux       double
   0.32392E-007   0.00000E+000   0.00000E+000
   0.62318E-007   0.00000E+000   0.00000E+000
   0.11515E-006   0.00000E+000   0.00000E+000
   0.15045E-006   0.00000E+000   0.00000E+000
   0.16285E-006   0.00000E+000   0.00000E+000
