# vtk DataFile Version 3.0
Malha poro mec                
ASCII
DATASET UNSTRUCTURED_GRID
FIELD FieldData 4
TIME_S 1 1 double
    14000.000000
TIME_H 1 1 double
        3.888889
TIME_D 1 1 double
        0.162037
CYCLE 1 1 int
       14
POINTS          5 double
    0.00000E+00    0.00000E+00    0.00000E+00
    0.25000E+00    0.00000E+00    0.00000E+00
    0.50000E+00    0.00000E+00    0.00000E+00
    0.75000E+00    0.00000E+00    0.00000E+00
    0.10000E+01    0.00000E+00    0.00000E+00
CELLS          4        12
         2         0         1
         2         1         2
         2         2         3
         2         3         4
CELL_TYPES          4
  3
  3
  3
  3
CELL_DATA         4
 SCALARS mat             int            1
LOOKUP_TABLE default
         1
         1
         1
         1
 SCALARS elIdG           int            1
LOOKUP_TABLE default
         1
         2
         3
         4
POINT_DATA         5
SCALARS noIdG            int       1
LOOKUP_TABLE default
         1
         2
         3
         4
         5
VECTORS desloc          double
   0.00000E+000   0.00000E+000   0.00000E+000
  -0.12624E-001   0.00000E+000   0.00000E+000
  -0.26707E-001   0.00000E+000   0.00000E+000
  -0.43489E-001   0.00000E+000   0.00000E+000
  -0.63797E-001   0.00000E+000   0.00000E+000
SCALARS pressao          double    1
LOOKUP_TABLE default
   0.67401E+000
   0.62272E+000
   0.47663E+000
   0.25797E+000
   0.00000E+000
VECTORS darcyFlux       double
   0.22569E-006   0.00000E+000   0.00000E+000
   0.43423E-006   0.00000E+000   0.00000E+000
   0.80246E-006   0.00000E+000   0.00000E+000
   0.10486E-005   0.00000E+000   0.00000E+000
   0.11350E-005   0.00000E+000   0.00000E+000
