# vtk DataFile Version 3.0
Malha poro mec                
ASCII
DATASET UNSTRUCTURED_GRID
FIELD FieldData 4
TIME_S 1 1 double
    91000.000000
TIME_H 1 1 double
       25.277778
TIME_D 1 1 double
        1.053241
CYCLE 1 1 int
       91
POINTS          5 double
    0.00000E+00    0.00000E+00    0.00000E+00
    0.25000E+00    0.00000E+00    0.00000E+00
    0.50000E+00    0.00000E+00    0.00000E+00
    0.75000E+00    0.00000E+00    0.00000E+00
    0.10000E+01    0.00000E+00    0.00000E+00
CELLS          4        12
         2         0         1
         2         1         2
         2         2         3
         2         3         4
CELL_TYPES          4
  3
  3
  3
  3
CELL_DATA         4
 SCALARS mat             int            1
LOOKUP_TABLE default
         1
         1
         1
         1
 SCALARS elIdG           int            1
LOOKUP_TABLE default
         1
         2
         3
         4
POINT_DATA         5
SCALARS noIdG            int       1
LOOKUP_TABLE default
         1
         2
         3
         4
         5
VECTORS desloc          double
   0.00000E+000   0.00000E+000   0.00000E+000
  -0.22191E-001   0.00000E+000   0.00000E+000
  -0.44386E-001   0.00000E+000   0.00000E+000
  -0.66588E-001   0.00000E+000   0.00000E+000
  -0.88799E-001   0.00000E+000   0.00000E+000
SCALARS pressao          double    1
LOOKUP_TABLE default
   0.17046E-002
   0.15749E-002
   0.12053E-002
   0.65233E-003
   0.00000E+000
VECTORS darcyFlux       double
   0.57093E-009   0.00000E+000   0.00000E+000
   0.10984E-008   0.00000E+000   0.00000E+000
   0.20296E-008   0.00000E+000   0.00000E+000
   0.26518E-008   0.00000E+000   0.00000E+000
   0.28702E-008   0.00000E+000   0.00000E+000
