# vtk DataFile Version 3.0
Malha poro mec                
ASCII
DATASET UNSTRUCTURED_GRID
FIELD FieldData 4
TIME_S 1 1 double
    42000.000000
TIME_H 1 1 double
       11.666667
TIME_D 1 1 double
        0.486111
CYCLE 1 1 int
       42
POINTS          5 double
    0.00000E+00    0.00000E+00    0.00000E+00
    0.25000E+00    0.00000E+00    0.00000E+00
    0.50000E+00    0.00000E+00    0.00000E+00
    0.75000E+00    0.00000E+00    0.00000E+00
    0.10000E+01    0.00000E+00    0.00000E+00
CELLS          4        12
         2         0         1
         2         1         2
         2         2         3
         2         3         4
CELL_TYPES          4
  3
  3
  3
  3
CELL_DATA         4
 SCALARS mat             int            1
LOOKUP_TABLE default
         1
         1
         1
         1
 SCALARS elIdG           int            1
LOOKUP_TABLE default
         1
         2
         3
         4
POINT_DATA         5
SCALARS noIdG            int       1
LOOKUP_TABLE default
         1
         2
         3
         4
         5
VECTORS desloc          double
   0.00000E+000   0.00000E+000   0.00000E+000
  -0.21125E-001   0.00000E+000   0.00000E+000
  -0.42417E-001   0.00000E+000   0.00000E+000
  -0.64015E-001   0.00000E+000   0.00000E+000
  -0.86014E-001   0.00000E+000   0.00000E+000
SCALARS pressao          double    1
LOOKUP_TABLE default
   0.76612E-001
   0.70781E-001
   0.54173E-001
   0.29318E-001
   0.00000E+000
VECTORS darcyFlux       double
   0.25660E-007   0.00000E+000   0.00000E+000
   0.49366E-007   0.00000E+000   0.00000E+000
   0.91217E-007   0.00000E+000   0.00000E+000
   0.11918E-006   0.00000E+000   0.00000E+000
   0.12900E-006   0.00000E+000   0.00000E+000
