# vtk DataFile Version 3.0
Malha poro mec                
ASCII
DATASET UNSTRUCTURED_GRID
FIELD FieldData 4
TIME_S 1 1 double
    25000.000000
TIME_H 1 1 double
        6.944444
TIME_D 1 1 double
        0.289352
CYCLE 1 1 int
       25
POINTS          5 double
    0.00000E+00    0.00000E+00    0.00000E+00
    0.25000E+00    0.00000E+00    0.00000E+00
    0.50000E+00    0.00000E+00    0.00000E+00
    0.75000E+00    0.00000E+00    0.00000E+00
    0.10000E+01    0.00000E+00    0.00000E+00
CELLS          4        12
         2         0         1
         2         1         2
         2         2         3
         2         3         4
CELL_TYPES          4
  3
  3
  3
  3
CELL_DATA         4
 SCALARS mat             int            1
LOOKUP_TABLE default
         1
         1
         1
         1
 SCALARS elIdG           int            1
LOOKUP_TABLE default
         1
         2
         3
         4
POINT_DATA         5
SCALARS noIdG            int       1
LOOKUP_TABLE default
         1
         2
         3
         4
         5
VECTORS desloc          double
   0.00000E+000   0.00000E+000   0.00000E+000
  -0.18133E-001   0.00000E+000   0.00000E+000
  -0.36888E-001   0.00000E+000   0.00000E+000
  -0.56791E-001   0.00000E+000   0.00000E+000
  -0.78195E-001   0.00000E+000   0.00000E+000
SCALARS pressao          double    1
LOOKUP_TABLE default
   0.28686E+000
   0.26503E+000
   0.20284E+000
   0.10978E+000
   0.00000E+000
VECTORS darcyFlux       double
   0.96079E-007   0.00000E+000   0.00000E+000
   0.18484E-006   0.00000E+000   0.00000E+000
   0.34155E-006   0.00000E+000   0.00000E+000
   0.44625E-006   0.00000E+000   0.00000E+000
   0.48302E-006   0.00000E+000   0.00000E+000
