# vtk DataFile Version 3.0
Malha poro mec                
ASCII
DATASET UNSTRUCTURED_GRID
FIELD FieldData 4
TIME_S 1 1 double
    78000.000000
TIME_H 1 1 double
       21.666667
TIME_D 1 1 double
        0.902778
CYCLE 1 1 int
       78
POINTS          5 double
    0.00000E+00    0.00000E+00    0.00000E+00
    0.25000E+00    0.00000E+00    0.00000E+00
    0.50000E+00    0.00000E+00    0.00000E+00
    0.75000E+00    0.00000E+00    0.00000E+00
    0.10000E+01    0.00000E+00    0.00000E+00
CELLS          4        12
         2         0         1
         2         1         2
         2         2         3
         2         3         4
CELL_TYPES          4
  3
  3
  3
  3
CELL_DATA         4
 SCALARS mat             int            1
LOOKUP_TABLE default
         1
         1
         1
         1
 SCALARS elIdG           int            1
LOOKUP_TABLE default
         1
         2
         3
         4
POINT_DATA         5
SCALARS noIdG            int       1
LOOKUP_TABLE default
         1
         2
         3
         4
         5
VECTORS desloc          double
   0.00000E+000   0.00000E+000   0.00000E+000
  -0.22149E-001   0.00000E+000   0.00000E+000
  -0.44308E-001   0.00000E+000   0.00000E+000
  -0.66486E-001   0.00000E+000   0.00000E+000
  -0.88689E-001   0.00000E+000   0.00000E+000
SCALARS pressao          double    1
LOOKUP_TABLE default
   0.46783E-002
   0.43222E-002
   0.33081E-002
   0.17903E-002
   0.00000E+000
VECTORS darcyFlux       double
   0.15669E-008   0.00000E+000   0.00000E+000
   0.30145E-008   0.00000E+000   0.00000E+000
   0.55702E-008   0.00000E+000   0.00000E+000
   0.72778E-008   0.00000E+000   0.00000E+000
   0.78774E-008   0.00000E+000   0.00000E+000
