# vtk DataFile Version 3.0
Malha poro mec                
ASCII
DATASET UNSTRUCTURED_GRID
FIELD FieldData 4
TIME_S 1 1 double
    26000.000000
TIME_H 1 1 double
        7.222222
TIME_D 1 1 double
        0.300926
CYCLE 1 1 int
       26
POINTS          5 double
    0.00000E+00    0.00000E+00    0.00000E+00
    0.25000E+00    0.00000E+00    0.00000E+00
    0.50000E+00    0.00000E+00    0.00000E+00
    0.75000E+00    0.00000E+00    0.00000E+00
    0.10000E+01    0.00000E+00    0.00000E+00
CELLS          4        12
         2         0         1
         2         1         2
         2         2         3
         2         3         4
CELL_TYPES          4
  3
  3
  3
  3
CELL_DATA         4
 SCALARS mat             int            1
LOOKUP_TABLE default
         1
         1
         1
         1
 SCALARS elIdG           int            1
LOOKUP_TABLE default
         1
         2
         3
         4
POINT_DATA         5
SCALARS noIdG            int       1
LOOKUP_TABLE default
         1
         2
         3
         4
         5
VECTORS desloc          double
   0.00000E+000   0.00000E+000   0.00000E+000
  -0.18438E-001   0.00000E+000   0.00000E+000
  -0.37452E-001   0.00000E+000   0.00000E+000
  -0.57528E-001   0.00000E+000   0.00000E+000
  -0.78992E-001   0.00000E+000   0.00000E+000
SCALARS pressao          double    1
LOOKUP_TABLE default
   0.26543E+000
   0.24522E+000
   0.18769E+000
   0.10157E+000
   0.00000E+000
VECTORS darcyFlux       double
   0.88900E-007   0.00000E+000   0.00000E+000
   0.17103E-006   0.00000E+000   0.00000E+000
   0.31603E-006   0.00000E+000   0.00000E+000
   0.41291E-006   0.00000E+000   0.00000E+000
   0.44693E-006   0.00000E+000   0.00000E+000
