# vtk DataFile Version 3.0
Malha poro mec                
ASCII
DATASET UNSTRUCTURED_GRID
FIELD FieldData 4
TIME_S 1 1 double
    71000.000000
TIME_H 1 1 double
       19.722222
TIME_D 1 1 double
        0.821759
CYCLE 1 1 int
       71
POINTS          5 double
    0.00000E+00    0.00000E+00    0.00000E+00
    0.25000E+00    0.00000E+00    0.00000E+00
    0.50000E+00    0.00000E+00    0.00000E+00
    0.75000E+00    0.00000E+00    0.00000E+00
    0.10000E+01    0.00000E+00    0.00000E+00
CELLS          4        12
         2         0         1
         2         1         2
         2         2         3
         2         3         4
CELL_TYPES          4
  3
  3
  3
  3
CELL_DATA         4
 SCALARS mat             int            1
LOOKUP_TABLE default
         1
         1
         1
         1
 SCALARS elIdG           int            1
LOOKUP_TABLE default
         1
         2
         3
         4
POINT_DATA         5
SCALARS noIdG            int       1
LOOKUP_TABLE default
         1
         2
         3
         4
         5
VECTORS desloc          double
   0.00000E+000   0.00000E+000   0.00000E+000
  -0.22101E-001   0.00000E+000   0.00000E+000
  -0.44219E-001   0.00000E+000   0.00000E+000
  -0.66370E-001   0.00000E+000   0.00000E+000
  -0.88563E-001   0.00000E+000   0.00000E+000
SCALARS pressao          double    1
LOOKUP_TABLE default
   0.80572E-002
   0.74439E-002
   0.56973E-002
   0.30834E-002
   0.00000E+000
VECTORS darcyFlux       double
   0.26986E-008   0.00000E+000   0.00000E+000
   0.51918E-008   0.00000E+000   0.00000E+000
   0.95932E-008   0.00000E+000   0.00000E+000
   0.12534E-007   0.00000E+000   0.00000E+000
   0.13567E-007   0.00000E+000   0.00000E+000
