# vtk DataFile Version 3.0
Malha part metis              
ASCII
DATASET UNSTRUCTURED_GRID
POINTS        128 double
   -0.50000E-01   -0.50000E-01    0.50000E+00
   -0.50000E-01   -0.50000E-01    0.40000E+00
   -0.50000E-01    0.50000E-01    0.40000E+00
   -0.50000E-01    0.50000E-01    0.50000E+00
    0.50000E-01   -0.50000E-01    0.50000E+00
    0.50000E-01   -0.50000E-01    0.40000E+00
    0.50000E-01    0.50000E-01    0.40000E+00
    0.50000E-01    0.50000E-01    0.50000E+00
   -0.50000E-01   -0.50000E-01    0.30000E+00
   -0.50000E-01    0.50000E-01    0.30000E+00
    0.50000E-01   -0.50000E-01    0.30000E+00
    0.50000E-01    0.50000E-01    0.30000E+00
   -0.50000E-01   -0.50000E-01    0.20000E+00
   -0.50000E-01    0.50000E-01    0.20000E+00
    0.50000E-01   -0.50000E-01    0.20000E+00
    0.50000E-01    0.50000E-01    0.20000E+00
   -0.50000E-01   -0.50000E-01    0.10000E+00
   -0.50000E-01    0.50000E-01    0.10000E+00
    0.50000E-01   -0.50000E-01    0.10000E+00
    0.50000E-01    0.50000E-01    0.10000E+00
   -0.50000E-01   -0.50000E-01    0.00000E+00
   -0.50000E-01    0.50000E-01    0.00000E+00
    0.50000E-01   -0.50000E-01    0.00000E+00
    0.50000E-01    0.50000E-01    0.00000E+00
   -0.50000E-01   -0.50000E-01   -0.10000E+00
   -0.50000E-01    0.50000E-01   -0.10000E+00
    0.50000E-01   -0.50000E-01   -0.10000E+00
    0.50000E-01    0.50000E-01   -0.10000E+00
   -0.50000E-01   -0.50000E-01   -0.20000E+00
   -0.50000E-01    0.50000E-01   -0.20000E+00
    0.50000E-01   -0.50000E-01   -0.20000E+00
    0.50000E-01    0.50000E-01   -0.20000E+00
   -0.50000E-01   -0.50000E-01   -0.30000E+00
   -0.50000E-01    0.50000E-01   -0.30000E+00
    0.50000E-01   -0.50000E-01   -0.30000E+00
    0.50000E-01    0.50000E-01   -0.30000E+00
   -0.50000E-01   -0.50000E-01   -0.40000E+00
   -0.50000E-01    0.50000E-01   -0.40000E+00
    0.50000E-01   -0.50000E-01   -0.40000E+00
    0.50000E-01    0.50000E-01   -0.40000E+00
   -0.50000E-01   -0.50000E-01   -0.50000E+00
   -0.50000E-01    0.50000E-01   -0.50000E+00
    0.50000E-01   -0.50000E-01   -0.50000E+00
    0.50000E-01    0.50000E-01   -0.50000E+00
    0.00000E+00   -0.50000E-01    0.50000E+00
    0.50000E-01    0.00000E+00    0.50000E+00
    0.00000E+00    0.50000E-01    0.50000E+00
   -0.50000E-01    0.00000E+00    0.50000E+00
    0.00000E+00   -0.50000E-01    0.40000E+00
    0.50000E-01    0.00000E+00    0.40000E+00
    0.00000E+00    0.50000E-01    0.40000E+00
   -0.50000E-01    0.00000E+00    0.40000E+00
   -0.50000E-01   -0.50000E-01    0.45000E+00
    0.50000E-01   -0.50000E-01    0.45000E+00
    0.50000E-01    0.50000E-01    0.45000E+00
   -0.50000E-01    0.50000E-01    0.45000E+00
    0.00000E+00   -0.50000E-01    0.30000E+00
    0.50000E-01    0.00000E+00    0.30000E+00
    0.00000E+00    0.50000E-01    0.30000E+00
   -0.50000E-01    0.00000E+00    0.30000E+00
   -0.50000E-01   -0.50000E-01    0.35000E+00
    0.50000E-01   -0.50000E-01    0.35000E+00
    0.50000E-01    0.50000E-01    0.35000E+00
   -0.50000E-01    0.50000E-01    0.35000E+00
    0.00000E+00   -0.50000E-01    0.20000E+00
    0.50000E-01    0.00000E+00    0.20000E+00
    0.00000E+00    0.50000E-01    0.20000E+00
   -0.50000E-01    0.00000E+00    0.20000E+00
   -0.50000E-01   -0.50000E-01    0.25000E+00
    0.50000E-01   -0.50000E-01    0.25000E+00
    0.50000E-01    0.50000E-01    0.25000E+00
   -0.50000E-01    0.50000E-01    0.25000E+00
    0.00000E+00   -0.50000E-01    0.10000E+00
    0.50000E-01    0.00000E+00    0.10000E+00
    0.00000E+00    0.50000E-01    0.10000E+00
   -0.50000E-01    0.00000E+00    0.10000E+00
   -0.50000E-01   -0.50000E-01    0.15000E+00
    0.50000E-01   -0.50000E-01    0.15000E+00
    0.50000E-01    0.50000E-01    0.15000E+00
   -0.50000E-01    0.50000E-01    0.15000E+00
    0.00000E+00   -0.50000E-01    0.00000E+00
    0.50000E-01    0.00000E+00    0.00000E+00
    0.00000E+00    0.50000E-01    0.00000E+00
   -0.50000E-01    0.00000E+00    0.00000E+00
   -0.50000E-01   -0.50000E-01    0.50000E-01
    0.50000E-01   -0.50000E-01    0.50000E-01
    0.50000E-01    0.50000E-01    0.50000E-01
   -0.50000E-01    0.50000E-01    0.50000E-01
    0.00000E+00   -0.50000E-01   -0.10000E+00
    0.50000E-01    0.00000E+00   -0.10000E+00
    0.00000E+00    0.50000E-01   -0.10000E+00
   -0.50000E-01    0.00000E+00   -0.10000E+00
   -0.50000E-01   -0.50000E-01   -0.50000E-01
    0.50000E-01   -0.50000E-01   -0.50000E-01
    0.50000E-01    0.50000E-01   -0.50000E-01
   -0.50000E-01    0.50000E-01   -0.50000E-01
    0.00000E+00   -0.50000E-01   -0.20000E+00
    0.50000E-01    0.00000E+00   -0.20000E+00
    0.00000E+00    0.50000E-01   -0.20000E+00
   -0.50000E-01    0.00000E+00   -0.20000E+00
   -0.50000E-01   -0.50000E-01   -0.15000E+00
    0.50000E-01   -0.50000E-01   -0.15000E+00
    0.50000E-01    0.50000E-01   -0.15000E+00
   -0.50000E-01    0.50000E-01   -0.15000E+00
    0.00000E+00   -0.50000E-01   -0.30000E+00
    0.50000E-01    0.00000E+00   -0.30000E+00
    0.00000E+00    0.50000E-01   -0.30000E+00
   -0.50000E-01    0.00000E+00   -0.30000E+00
   -0.50000E-01   -0.50000E-01   -0.25000E+00
    0.50000E-01   -0.50000E-01   -0.25000E+00
    0.50000E-01    0.50000E-01   -0.25000E+00
   -0.50000E-01    0.50000E-01   -0.25000E+00
    0.00000E+00   -0.50000E-01   -0.40000E+00
    0.50000E-01    0.00000E+00   -0.40000E+00
    0.00000E+00    0.50000E-01   -0.40000E+00
   -0.50000E-01    0.00000E+00   -0.40000E+00
   -0.50000E-01   -0.50000E-01   -0.35000E+00
    0.50000E-01   -0.50000E-01   -0.35000E+00
    0.50000E-01    0.50000E-01   -0.35000E+00
   -0.50000E-01    0.50000E-01   -0.35000E+00
    0.00000E+00   -0.50000E-01   -0.50000E+00
    0.50000E-01    0.00000E+00   -0.50000E+00
    0.00000E+00    0.50000E-01   -0.50000E+00
   -0.50000E-01    0.00000E+00   -0.50000E+00
   -0.50000E-01   -0.50000E-01   -0.45000E+00
    0.50000E-01   -0.50000E-01   -0.45000E+00
    0.50000E-01    0.50000E-01   -0.45000E+00
   -0.50000E-01    0.50000E-01   -0.45000E+00
CELLS         10       210
        20         1         5         6         2         0         4         7         3        48        49        50        51        44        45        46        47        52        53        54        55
        20         8        10        11         9         1         5         6         2        56        57        58        59        48        49        50        51        60        61        62        63
        20        12        14        15        13         8        10        11         9        64        65        66        67        56        57        58        59        68        69        70        71
        20        16        18        19        17        12        14        15        13        72        73        74        75        64        65        66        67        76        77        78        79
        20        20        22        23        21        16        18        19        17        80        81        82        83        72        73        74        75        84        85        86        87
        20        24        26        27        25        20        22        23        21        88        89        90        91        80        81        82        83        92        93        94        95
        20        28        30        31        29        24        26        27        25        96        97        98        99        88        89        90        91       100       101       102       103
        20        32        34        35        33        28        30        31        29       104       105       106       107        96        97        98        99       108       109       110       111
        20        36        38        39        37        32        34        35        33       112       113       114       115       104       105       106       107       116       117       118       119
        20        40        42        43        41        36        38        39        37       120       121       122       123       112       113       114       115       124       125       126       127
CELL_TYPES         10
 25
 25
 25
 25
 25
 25
 25
 25
 25
 25
CELL_DATA        10
 SCALARS mat             int            1
LOOKUP_TABLE default
         2
         1
         1
         1
         1
         1
         1
         1
         1
         1
SCALARS gElm             int       1
LOOKUP_TABLE default
         1
         2
         3
         4
         5
         6
         7
         8
         9
        10
 SCALARS part_metis      int            1
LOOKUP_TABLE default
         1
         2
         3
         4
         0
         0
         0
         0
         0
         0
POINT_DATA       128
SCALARS part_por_no      int       1
LOOKUP_TABLE default
         1
         1
         2
         1
         3
         4
         3
         3
         4
         0
         0
         0
         0
         0
         0
         0
         0
         0
         0
         0
         0
         0
         0
         0
         0
         0
         0
         0
         0
         0
         0
         0
         0
         0
         0
         0
         0
         0
         0
         0
         0
         0
         0
         0
         0
         0
         0
         0
         0
         0
         0
         0
         0
         0
         0
         0
         0
         0
         0
         0
         0
         0
         0
         0
         0
         0
         0
         0
         0
         0
         0
         0
         0
         0
         0
         0
         0
         0
         0
         0
         0
         0
         0
         0
         0
         0
         0
         0
         0
         0
         0
         0
         0
         0
         0
         0
         0
         0
         0
         0
         0
         0
         0
         0
         0
         0
         0
         0
         0
         0
         0
         0
         0
         0
         0
         0
         0
         0
         0
         0
         0
         0
         0
         0
         0
         0
         0
         0
SCALARS gNode            int       1
LOOKUP_TABLE default
         1
         2
         3
         4
         5
         6
         7
         8
         9
        10
        11
        12
        13
        14
        15
        16
        17
        18
        19
        20
        21
        22
        23
        24
        25
        26
        27
        28
        29
        30
        31
        32
        33
        34
        35
        36
        37
        38
        39
        40
        41
        42
        43
        44
        45
        46
        47
        48
        49
        50
        51
        52
        53
        54
        55
        56
        57
        58
        59
        60
        61
        62
        63
        64
        65
        66
        67
        68
        69
        70
        71
        72
        73
        74
        75
        76
        77
        78
        79
        80
        81
        82
        83
        84
        85
        86
        87
        88
        89
        90
        91
        92
        93
        94
        95
        96
        97
        98
        99
       100
       101
       102
       103
       104
       105
       106
       107
       108
       109
       110
       111
       112
       113
       114
       115
       116
       117
       118
       119
       120
       121
       122
       123
       124
       125
       126
       127
       128
