# vtk DataFile Version 3.0
Part mesh                     
ASCII
DATASET UNSTRUCTURED_GRID
POINTS         48 double
   -0.50000E-01   -0.50000E-01    0.30000E+00
   -0.50000E-01    0.50000E-01    0.30000E+00
    0.50000E-01   -0.50000E-01    0.30000E+00
    0.50000E-01    0.50000E-01    0.30000E+00
   -0.50000E-01   -0.50000E-01    0.50000E+00
   -0.50000E-01   -0.50000E-01    0.40000E+00
   -0.50000E-01    0.50000E-01    0.40000E+00
   -0.50000E-01    0.50000E-01    0.50000E+00
   -0.50000E-01   -0.50000E-01    0.20000E+00
   -0.50000E-01    0.50000E-01    0.20000E+00
    0.50000E-01   -0.50000E-01    0.20000E+00
    0.50000E-01    0.50000E-01    0.20000E+00
    0.00000E+00   -0.50000E-01    0.30000E+00
    0.50000E-01    0.00000E+00    0.30000E+00
    0.00000E+00    0.50000E-01    0.30000E+00
   -0.50000E-01    0.00000E+00    0.30000E+00
    0.00000E+00   -0.50000E-01    0.20000E+00
    0.50000E-01    0.00000E+00    0.20000E+00
    0.00000E+00    0.50000E-01    0.20000E+00
   -0.50000E-01    0.00000E+00    0.20000E+00
   -0.50000E-01   -0.50000E-01    0.25000E+00
    0.50000E-01   -0.50000E-01    0.25000E+00
    0.50000E-01    0.50000E-01    0.25000E+00
   -0.50000E-01    0.50000E-01    0.25000E+00
    0.00000E+00    0.00000E+00    0.00000E+00
    0.00000E+00    0.00000E+00    0.00000E+00
    0.00000E+00    0.00000E+00    0.00000E+00
    0.00000E+00    0.00000E+00    0.00000E+00
    0.50000E-01   -0.50000E-01    0.50000E+00
    0.50000E-01   -0.50000E-01    0.40000E+00
    0.50000E-01    0.50000E-01    0.40000E+00
    0.50000E-01    0.50000E-01    0.50000E+00
    0.00000E+00   -0.50000E-01    0.50000E+00
    0.50000E-01    0.00000E+00    0.50000E+00
    0.00000E+00    0.50000E-01    0.50000E+00
   -0.50000E-01    0.00000E+00    0.50000E+00
    0.00000E+00   -0.50000E-01    0.40000E+00
    0.50000E-01    0.00000E+00    0.40000E+00
    0.00000E+00    0.50000E-01    0.40000E+00
   -0.50000E-01    0.00000E+00    0.40000E+00
   -0.50000E-01   -0.50000E-01    0.45000E+00
    0.50000E-01   -0.50000E-01    0.45000E+00
    0.50000E-01    0.50000E-01    0.45000E+00
   -0.50000E-01    0.50000E-01    0.45000E+00
   -0.50000E-01   -0.50000E-01    0.35000E+00
    0.50000E-01   -0.50000E-01    0.35000E+00
    0.50000E-01    0.50000E-01    0.35000E+00
   -0.50000E-01    0.50000E-01    0.35000E+00
CELLS          3        63
        20         8        10        11         9         0         2         3         1        16        17        18        19        12        13        14        15        20        21        22        23
        20         5        29        30         6         4        28        31         7        36        37        38        39        32        33        34        35        40        41        42        43
        20         0         2         3         1         5        29        30         6        12        13        14        15        36        37        38        39        44        45        46        47
CELL_TYPES          3
 25
 25
 25
CELL_DATA         3
 SCALARS mat             int            1
LOOKUP_TABLE default
         1
         2
         1
 SCALARS part            int            1
LOOKUP_TABLE default
         3
         1
         2
