# vtk DataFile Version 3.0
Part mesh                     
ASCII
DATASET UNSTRUCTURED_GRID
POINTS         36 double
   -0.50000E-01   -0.50000E-01    0.40000E+00
   -0.50000E-01    0.50000E-01    0.40000E+00
    0.50000E-01   -0.50000E-01    0.40000E+00
    0.50000E-01    0.50000E-01    0.40000E+00
   -0.50000E-01   -0.50000E-01    0.30000E+00
   -0.50000E-01   -0.50000E-01    0.50000E+00
   -0.50000E-01    0.50000E-01    0.50000E+00
    0.50000E-01   -0.50000E-01    0.50000E+00
    0.50000E-01    0.50000E-01    0.50000E+00
   -0.50000E-01    0.50000E-01    0.30000E+00
    0.50000E-01   -0.50000E-01    0.30000E+00
    0.50000E-01    0.50000E-01    0.30000E+00
    0.00000E+00   -0.50000E-01    0.40000E+00
    0.50000E-01    0.00000E+00    0.40000E+00
    0.00000E+00    0.50000E-01    0.40000E+00
   -0.50000E-01    0.00000E+00    0.40000E+00
    0.00000E+00   -0.50000E-01    0.30000E+00
    0.50000E-01    0.00000E+00    0.30000E+00
    0.00000E+00    0.50000E-01    0.30000E+00
   -0.50000E-01    0.00000E+00    0.30000E+00
   -0.50000E-01   -0.50000E-01    0.35000E+00
    0.50000E-01   -0.50000E-01    0.35000E+00
    0.50000E-01    0.50000E-01    0.35000E+00
   -0.50000E-01    0.50000E-01    0.35000E+00
    0.00000E+00    0.00000E+00    0.00000E+00
    0.00000E+00    0.00000E+00    0.00000E+00
    0.00000E+00    0.00000E+00    0.00000E+00
    0.00000E+00    0.00000E+00    0.00000E+00
    0.00000E+00   -0.50000E-01    0.50000E+00
    0.50000E-01    0.00000E+00    0.50000E+00
    0.00000E+00    0.50000E-01    0.50000E+00
   -0.50000E-01    0.00000E+00    0.50000E+00
   -0.50000E-01   -0.50000E-01    0.45000E+00
    0.50000E-01   -0.50000E-01    0.45000E+00
    0.50000E-01    0.50000E-01    0.45000E+00
   -0.50000E-01    0.50000E-01    0.45000E+00
CELLS          2        42
        20         4        10        11         9         0         2         3         1        16        17        18        19        12        13        14        15        20        21        22        23
        20         0         2         3         1         5         7         8         6        12        13        14        15        28        29        30        31        32        33        34        35
CELL_TYPES          2
 25
 25
CELL_DATA         2
 SCALARS mat             int            1
LOOKUP_TABLE default
         1
         2
 SCALARS part            int            1
LOOKUP_TABLE default
         2
         1
