# vtk DataFile Version 3.0
Part mesh                     
ASCII
DATASET UNSTRUCTURED_GRID
POINTS          0 double
CELLS          0         0
CELL_TYPES          0
CELL_DATA         0
 SCALARS mat             int            1
LOOKUP_TABLE default
 SCALARS part            int            1
LOOKUP_TABLE default
