# vtk DataFile Version 3.0
Part mesh                     
ASCII
DATASET UNSTRUCTURED_GRID
POINTS         42 double
   -0.50000E-01   -0.50000E-01    0.40000E+00
   -0.50000E-01    0.50000E-01    0.40000E+00
    0.50000E-01   -0.50000E-01    0.50000E+00
    0.50000E-01   -0.50000E-01    0.40000E+00
    0.50000E-01    0.50000E-01    0.40000E+00
    0.50000E-01    0.50000E-01    0.50000E+00
    0.00000E+00   -0.50000E-01    0.50000E+00
    0.50000E-01    0.00000E+00    0.50000E+00
    0.00000E+00    0.50000E-01    0.50000E+00
   -0.50000E-01    0.00000E+00    0.50000E+00
   -0.50000E-01   -0.50000E-01    0.50000E+00
   -0.50000E-01    0.50000E-01    0.50000E+00
    0.00000E+00   -0.50000E-01    0.40000E+00
   -0.50000E-01   -0.50000E-01    0.30000E+00
   -0.50000E-01    0.50000E-01    0.30000E+00
    0.50000E-01   -0.50000E-01    0.30000E+00
    0.50000E-01    0.50000E-01    0.30000E+00
    0.50000E-01    0.00000E+00    0.40000E+00
    0.00000E+00    0.50000E-01    0.40000E+00
   -0.50000E-01    0.00000E+00    0.40000E+00
   -0.50000E-01   -0.50000E-01    0.45000E+00
    0.50000E-01   -0.50000E-01    0.45000E+00
    0.50000E-01    0.50000E-01    0.45000E+00
   -0.50000E-01    0.50000E-01    0.45000E+00
    0.00000E+00   -0.50000E-01    0.30000E+00
    0.50000E-01    0.00000E+00    0.30000E+00
    0.00000E+00    0.50000E-01    0.30000E+00
   -0.50000E-01    0.00000E+00    0.30000E+00
   -0.50000E-01   -0.50000E-01    0.35000E+00
    0.50000E-01   -0.50000E-01    0.35000E+00
    0.00000E+00    0.00000E+00    0.00000E+00
    0.00000E+00    0.00000E+00    0.00000E+00
    0.00000E+00    0.00000E+00    0.00000E+00
    0.00000E+00    0.00000E+00    0.00000E+00
    0.00000E+00    0.00000E+00    0.00000E+00
    0.00000E+00    0.00000E+00    0.00000E+00
    0.00000E+00    0.00000E+00    0.00000E+00
    0.00000E+00    0.00000E+00    0.00000E+00
    0.00000E+00    0.00000E+00    0.00000E+00
    0.00000E+00    0.00000E+00    0.00000E+00
    0.50000E-01    0.50000E-01    0.35000E+00
   -0.50000E-01    0.50000E-01    0.35000E+00
CELLS          2        42
        20         0         3         4         1        10         2         5        11        12        17        18        19         6         7         8         9        20        21        22        23
        20        13        15        16        14         0         3         4         1        24        25        26        27        12        17        18        19        28        29        40        41
CELL_TYPES          2
 25
 25
CELL_DATA         2
 SCALARS mat             int            1
LOOKUP_TABLE default
         2
         1
 SCALARS part            int            1
LOOKUP_TABLE default
         1
         2
